Program Version,EnergyPlus, Version 9.5.0-de239b2e5f, YMD=2023.02.17 15:24
1,5,Environment Title[],Latitude[deg],Longitude[deg],Time Zone[],Elevation[m]
2,8,Day of Simulation[],Month[],Day of Month[],DST Indicator[1=yes 0=no],Hour[],StartMinute[],EndMinute[],DayType
3,5,Cumulative Day of Simulation[],Month[],Day of Month[],DST Indicator[1=yes 0=no],DayType  ! When Daily Report Variables Requested
4,2,Cumulative Days of Simulation[],Month[]  ! When Monthly Report Variables Requested
5,1,Cumulative Days of Simulation[] ! When Run Period Report Variables Requested
6,1,Calendar Year of Simulation[] ! When Annual Report Variables Requested
7,1,Environment,Site Outdoor Air Drybulb Temperature [C] !TimeStep
8,1,ZONE ONE,Zone Windows Total Transmitted Solar Radiation Rate [W] !TimeStep
9,1,ZN001:WALL001,Surface Outside Face Sunlit Fraction [] !TimeStep
10,1,ZN001:WALL001,Surface Outside Face Incident Solar Radiation Rate per Area [W/m2] !TimeStep
11,1,ZN001:WALL001:WIN001,Surface Outside Face Sunlit Fraction [] !TimeStep
12,1,ZN001:WALL001:WIN001,Surface Outside Face Incident Solar Radiation Rate per Area [W/m2] !TimeStep
13,1,ZN001:WALL001:WIN001,Surface Window Transmitted Solar Radiation Rate [W] !TimeStep
14,1,ZN001:WALL001,Surface Inside Face Temperature [C] !TimeStep
15,1,ZN001:WALL001,Surface Outside Face Temperature [C] !TimeStep
16,1,ZN001:WALL001:WIN001,Surface Inside Face Temperature [C] !TimeStep
17,1,ZN001:WALL001:WIN001,Surface Outside Face Temperature [C] !TimeStep
18,1,ZONE ONE,Zone Mean Air Temperature [C] !TimeStep
End of Data Dictionary
1,RUN PERIOD 1,  41.98, -87.92,  -6.00, 201.00
2,1, 1, 1, 0, 1, 0.00,15.00,Tuesday
7,-4.324999999999999
8,0.0
9,0.0
10,0.0
11,0.0
12,0.0
13,0.0
14,9.49855069006297
15,-5.831061511973969
16,6.963356837207357
17,-4.081908735174579
18,10.051609058385122
2,1, 1, 1, 0, 1,15.00,30.00,Tuesday
7,-6.949999999999999
8,0.0
9,0.0
10,0.0
11,0.0
12,0.0
13,0.0
14,9.312333352442382
15,-8.29779281052517
16,6.420065544321233
17,-6.212768662096721
18,9.944981725784452
2,1, 1, 1, 0, 1,30.00,45.00,Tuesday
7,-9.575
8,0.0
9,0.0
10,0.0
11,0.0
12,0.0
13,0.0
14,9.106356218149882
15,-10.772406963994449
16,5.869429508714063
17,-8.349815372296007
18,9.808247631786305
2,1, 1, 1, 0, 1,45.00,60.00,Tuesday
7,-12.2
8,0.0
9,0.0
10,0.0
11,0.0
12,0.0
13,0.0
14,8.88498668061129
15,-13.253671711646537
16,5.303400207144591
17,-10.494207618500753
18,9.651031615488398
2,1, 1, 1, 0, 2, 0.00,15.00,Tuesday
7,-12.075
8,0.0
9,0.0
10,0.0
11,0.0
12,0.0
13,0.0
14,8.807477769946729
15,-13.054108880873804
16,5.2181673947806079
17,-10.326020407263173
18,9.509048452377236
2,1, 1, 1, 0, 2,15.00,30.00,Tuesday
7,-11.95
8,0.0
9,0.0
10,0.0
11,0.0
12,0.0
13,0.0
14,8.717210413377375
15,-12.877235642053048
16,5.169858383738415
17,-10.177577740427353
18,9.39822084572036
2,1, 1, 1, 0, 2,30.00,45.00,Tuesday
7,-11.825
8,0.0
9,0.0
10,0.0
11,0.0
12,0.0
13,0.0
14,8.643724207131026
15,-12.699247393232819
16,5.127166939138647
17,-10.028819828882434
18,9.312686796322323
2,1, 1, 1, 0, 2,45.00,60.00,Tuesday
7,-11.7
8,0.0
9,0.0
10,0.0
11,0.0
12,0.0
13,0.0
14,8.580946109188151
15,-12.5213531791244
16,5.097030642234358
17,-9.877839692377677
18,9.241510047135137
2,1, 1, 1, 0, 3, 0.00,15.00,Tuesday
7,-11.549999999999999
8,0.0
9,0.0
10,0.0
11,0.0
12,0.0
13,0.0
14,8.519672789139142
15,-12.393428732086355
16,5.074535949853612
17,-9.724952283148128
18,9.176106329427532
2,1, 1, 1, 0, 3,15.00,30.00,Tuesday
7,-11.399999999999999
8,0.0
9,0.0
10,0.0
11,0.0
12,0.0
13,0.0
14,8.461276483105398
15,-12.266790786023412
16,5.053716997922379
17,-9.57181128640741
18,9.112447201824047
2,1, 1, 1, 0, 3,30.00,45.00,Tuesday
7,-11.25
8,0.0
9,0.0
10,0.0
11,0.0
12,0.0
13,0.0
14,8.403582572249558
15,-12.141577478400821
16,5.03453101846992
17,-9.418367994817004
18,9.049517307587268
2,1, 1, 1, 0, 3,45.00,60.00,Tuesday
7,-11.1
8,0.0
9,0.0
10,0.0
11,0.0
12,0.0
13,0.0
14,8.346330035820689
15,-12.017841967309517
16,5.01594025780264
17,-9.264840902428375
18,8.98729688667347
2,1, 1, 1, 0, 4, 0.00,15.00,Tuesday
7,-11.1
8,0.0
9,0.0
10,0.0
11,0.0
12,0.0
13,0.0
14,8.28531369453062
15,-11.992052259227501
16,4.953551858732226
17,-9.306759372112993
18,8.924997147159776
2,1, 1, 1, 0, 4,15.00,30.00,Tuesday
7,-11.1
8,0.0
9,0.0
10,0.0
11,0.0
12,0.0
13,0.0
14,8.224722890832183
15,-11.967245635121554
16,4.893874490310736
17,-9.347110927498762
18,8.862286241665718
2,1, 1, 1, 0, 4,30.00,45.00,Tuesday
7,-11.1
8,0.0
9,0.0
10,0.0
11,0.0
12,0.0
13,0.0
14,8.163976723858636
15,-11.943847130223736
16,4.834533859223654
17,-9.386330435423588
18,8.799285488216924
2,1, 1, 1, 0, 4,45.00,60.00,Tuesday
7,-11.1
8,0.0
9,0.0
10,0.0
11,0.0
12,0.0
13,0.0
14,8.103187093056562
15,-11.921731184996546
16,4.775385355915205
17,-9.424397462029106
18,8.736217214655927
2,1, 1, 1, 0, 5, 0.00,15.00,Tuesday
7,-10.975
8,0.0
9,0.0
10,0.0
11,0.0
12,0.0
13,0.0
14,8.047908784768842
15,-11.800020135928979
16,4.7489679893876659
17,-9.336428404787057
18,8.674270317307178
2,1, 1, 1, 0, 5,15.00,30.00,Tuesday
7,-10.85
8,0.0
9,0.0
10,0.0
11,0.0
12,0.0
13,0.0
14,7.992861965801454
15,-11.678361463156105
16,4.7207564315435779
17,-9.240345847635468
18,8.61391237039957
2,1, 1, 1, 0, 5,30.00,45.00,Tuesday
7,-10.725
8,0.0
9,0.0
10,0.0
11,0.0
12,0.0
13,0.0
14,7.938858233662357
15,-11.556679757607128
16,4.69292020862747
17,-9.143499252414927
18,8.554907974846593
2,1, 1, 1, 0, 5,45.00,60.00,Tuesday
7,-10.6
8,0.0
9,0.0
10,0.0
11,0.0
12,0.0
13,0.0
14,7.885716847924809
15,-11.435007416908574
16,4.665926219799303
17,-9.0464500336941
18,8.496883901372426
2,1, 1, 1, 0, 6, 0.00,15.00,Tuesday
7,-10.6
8,0.0
9,0.0
10,0.0
11,0.0
12,0.0
13,0.0
14,7.8259219158449169
15,-11.436148171114232
16,4.613872356474872
17,-9.048369214572177
18,8.4382786040676
2,1, 1, 1, 0, 6,15.00,30.00,Tuesday
7,-10.6
8,0.0
9,0.0
10,0.0
11,0.0
12,0.0
13,0.0
14,7.7667722411241029
15,-11.43725735622063
16,4.562576778615153
17,-9.056815701540018
18,8.378420363250365
2,1, 1, 1, 0, 6,30.00,45.00,Tuesday
7,-10.6
8,0.0
9,0.0
10,0.0
11,0.0
12,0.0
13,0.0
14,7.7071161809705999
15,-11.438407485536957
16,4.511441069694001
17,-9.065773464441805
18,8.3176078214326
2,1, 1, 1, 0, 6,45.00,60.00,Tuesday
7,-10.6
8,0.0
9,0.0
10,0.0
11,0.0
12,0.0
13,0.0
14,7.647192565821438
15,-11.439554485095345
16,4.459963923935732
17,-9.074848862675822
18,8.256352617572702
2,1, 1, 1, 0, 7, 0.00,15.00,Tuesday
7,-10.6
8,0.0
9,0.0
10,0.0
11,0.0
12,0.0
13,0.0
14,7.589124582810339
15,-11.418179257303305
16,4.4021450691003569
17,-9.107546473907519
18,8.195299942935835
2,1, 1, 1, 0, 7,15.00,30.00,Tuesday
7,-10.6
8,0.0
9,0.0
10,0.0
11,0.0
12,0.0
13,0.0
14,7.530993885178224
15,-11.397911922435265
16,4.346230977591176
17,-9.140519231821884
18,8.134773774959733
2,1, 1, 1, 0, 7,30.00,45.00,Tuesday
7,-10.6
8,0.0
9,0.0
10,0.0
11,0.0
12,0.0
13,0.0
14,7.473191462315056
15,-11.378680112853092
16,4.2907737018637139
17,-9.172603639610373
18,8.074744831537013
2,1, 1, 1, 0, 7,45.00,60.00,Tuesday
7,-10.6
8,0.0
9,0.0
10,0.0
11,0.0
12,0.0
13,0.0
14,7.415713622471585
15,-11.36042217723551
16,4.235832532646668
17,-9.203668243228094
18,8.015096671491568
2,1, 1, 1, 0, 8, 0.00,15.00,Tuesday
7,-10.45
8,0.0
9,0.0
10,0.0
11,0.0
12,0.0
13,0.0
14,7.357857987676048
15,-11.309926133249843
16,4.2037743007260819
17,-9.148729385771674
18,7.95550529223529
2,1, 1, 1, 0, 8,15.00,30.00,Tuesday
7,-10.3
8,215.5879980222353
9,1.0
10,22.819555959623899
11,1.0
12,22.819555959623899
13,215.5879980222353
14,7.428895622384845
15,-9.635737720624626
16,4.453219022987355
17,-8.847764865273519
18,7.916549851716738
2,1, 1, 1, 0, 8,30.00,45.00,Tuesday
7,-10.15
8,1058.5392312119832
9,1.0
10,109.75755355442667
11,1.0
12,109.75755355442667
13,1058.5392312119832
14,7.856382371718207
15,-3.2569181923141854
16,5.558685825973271
17,-7.859536741725094
18,7.956531248884429
2,1, 1, 1, 0, 8,45.00,60.00,Tuesday
7,-10.0
8,1924.8399544048012
9,1.0
10,195.8764694434918
11,1.0
12,195.8764694434918
13,1924.8399544048012
14,8.389204289401516
15,3.2093889610682595
16,6.791460841476066
17,-6.883795813748691
18,8.08357362005453
2,1, 1, 1, 0, 9, 0.00,15.00,Tuesday
7,-9.725
8,2788.1568045040946
9,1.0
10,278.97248314719988
11,1.0
12,278.97248314719988
13,2788.1568045040946
14,8.885033222680976
15,8.394992731539764
16,8.06876375817501
17,-6.011801495543068
18,8.27203275393532
2,1, 1, 1, 0, 9,15.00,30.00,Tuesday
7,-9.45
8,3698.191694964431
9,1.0
10,364.91995730569456
11,1.0
12,364.91995730569456
13,3698.191694964431
14,9.373591788495139
15,13.466266327649559
16,9.407053154555968
17,-5.1377642948832549
18,8.509180978824288
2,1, 1, 1, 0, 9,30.00,45.00,Tuesday
7,-9.175
8,4300.2673206835229
9,1.0
10,420.35879993239237
11,1.0
12,420.35879993239237
13,4300.2673206835229
14,9.72863141489513
15,16.22242684336533
16,10.299688006215263
17,-4.586327831066171
18,8.77361231511433
2,1, 1, 1, 0, 9,45.00,60.00,Tuesday
7,-8.9
8,4925.271017558337
9,1.0
10,478.00138373643099
11,1.0
12,478.00138373643099
13,4925.271017558337
14,10.143173335874418
15,19.21610267605765
16,11.17935620265348
17,-4.024868937694066
18,9.054481311957338
2,1, 1, 1, 0,10, 0.00,15.00,Tuesday
7,-8.350000000000002
8,5563.47927965646
9,1.0
10,536.9185644770597
11,1.0
12,536.9185644770597
13,5563.47927965646
14,10.509358590899755
15,20.32869329658895
16,12.100145684044947
17,-3.3861327069648725
18,9.352287113980604
2,1, 1, 1, 0,10,15.00,30.00,Tuesday
7,-7.800000000000001
8,6223.735720388039
9,1.0
10,598.0969199229219
11,1.0
12,598.0969199229219
13,6223.735720388039
14,10.908637511255013
15,21.57801640231273
16,13.038604462187948
17,-2.744826895685719
18,9.493719502838939
2,1, 1, 1, 0,10,30.00,45.00,Tuesday
7,-7.25
8,6656.871608685562
9,1.0
10,637.6133352894237
11,1.0
12,637.6133352894237
13,6656.871608685562
14,11.183726964070712
15,21.633034363502337
16,13.721300971808376
17,-2.275993426530931
18,9.767131120666722
2,1, 1, 1, 0,10,45.00,60.00,Tuesday
7,-6.7
8,7083.627635407371
9,1.0
10,676.6412284283772
11,1.0
12,676.6412284283772
13,7083.627635407371
14,11.45105473413036
15,21.789263664589226
16,14.341636813310857
17,-1.8117619574830997
18,9.969931096928395
2,1, 1, 1, 0,11, 0.00,15.00,Tuesday
7,-6.275
8,7502.619881932496
9,1.0
10,715.0112779846514
11,1.0
12,715.0112779846514
13,7502.619881932496
14,11.87128314293006
15,23.889039827266357
16,15.020381322778576
17,-1.152801841915732
18,10.437641508004547
2,1, 1, 1, 0,11,15.00,30.00,Tuesday
7,-5.85
8,7911.749570952164
9,1.0
10,752.5077794605232
11,1.0
12,752.5077794605232
13,7911.749570952164
14,12.344751673925745
15,25.82628188076452
16,15.75542409679565
17,-0.5055884554800514
18,10.874528245535533
2,1, 1, 1, 0,11,30.00,45.00,Tuesday
7,-5.425
8,7790.156876744835
9,1.0
10,742.5988714321785
11,1.0
12,742.5988714321785
13,7790.156876744835
14,12.636604568918548
15,25.678205782523429
16,16.022086880425435
17,-0.18252671839451296
18,11.281154670471043
2,1, 1, 1, 0,11,45.00,60.00,Tuesday
7,-5.0
8,7616.415097398768
9,1.0
10,727.8169025450712
11,1.0
12,727.8169025450712
13,7616.415097398768
14,12.914653241866802
15,25.45015367793828
16,16.190737198137755
17,0.11382384753937913
18,11.641310665815066
2,1, 1, 1, 0,12, 0.00,15.00,Tuesday
7,-4.575
8,7317.63187899619
9,1.0
10,700.3759009170325
11,1.0
12,700.3759009170325
13,7317.63187899619
14,13.114965670435316
15,24.70833486427066
16,16.21830287525978
17,0.36800635978414678
18,11.951179972654458
2,1, 1, 1, 0,12,15.00,30.00,Tuesday
7,-4.15
8,7096.045470548525
9,1.0
10,681.6705029034473
11,1.0
12,681.6705029034473
13,7096.045470548525
14,13.335376384307664
15,24.378758969169576
16,16.30485846096758
17,0.6812114863673742
18,12.223448608879734
2,1, 1, 1, 0,12,30.00,45.00,Tuesday
7,-3.7249999999999998
8,6229.736928425406
9,1.0
10,602.01865277251
11,1.0
12,602.01865277251
13,6229.736928425406
14,13.249578226203046
15,21.350041992838244
16,15.747964914576756
17,0.594106417528451
18,12.433614782832703
2,1, 1, 1, 0,12,45.00,60.00,Tuesday
7,-3.3
8,5087.904404183855
9,1.0
10,493.55004396206007
11,1.0
12,493.55004396206007
13,5087.904404183855
14,13.054355671831994
15,17.173103496947389
16,14.760233949267104
17,0.2968033340677607
18,12.549112266036558
2,1, 1, 1, 0,13, 0.00,15.00,Tuesday
7,-3.0249999999999996
8,4201.063393949559
9,1.0
10,412.335026418112
11,1.0
12,412.335026418112
13,4201.063393949559
14,12.919679862191757
15,14.330223927163452
16,13.96267480723077
17,0.11314718521094847
18,12.588378446344198
2,1, 1, 1, 0,13,15.00,30.00,Tuesday
7,-2.75
8,3076.892122430221
9,1.0
10,305.94037763660148
11,1.0
12,305.94037763660148
13,3076.892122430221
14,12.58265350944102
15,10.157888569684868
16,12.819447208924715
17,-0.26691585844861268
18,12.56260294109447
2,1, 1, 1, 0,13,30.00,45.00,Tuesday
7,-2.475
8,2809.0935899127655
9,1.0
10,281.0763483922329
11,1.0
12,281.0763483922329
13,2809.0935899127655
14,12.552061287290576
15,9.646075465279888
16,12.502572387778969
17,-0.10796737877166152
18,12.516506224453659
2,1, 1, 1, 0,13,45.00,60.00,Tuesday
7,-2.2
8,2546.8736709552365
9,1.0
10,256.7721209415886
11,1.0
12,256.7721209415886
13,2546.8736709552365
14,12.512842520070647
15,9.040624735385944
16,12.296075561494036
17,0.0781180783601485
18,12.477334409178303
2,1, 1, 1, 0,14, 0.00,15.00,Tuesday
7,-1.9250000000000003
8,2080.536760270814
9,1.0
10,210.73276284570657
11,1.0
12,210.73276284570657
13,2080.536760270814
14,12.345504202596067
15,7.493736920306887
16,11.811963531162633
17,0.07363102673889444
18,12.440827105951796
2,1, 1, 1, 0,14,15.00,30.00,Tuesday
7,-1.6500000000000002
8,1848.1882299855229
9,1.0
10,189.38488290342594
11,1.0
12,189.38488290342594
13,1848.1882299855229
14,12.310161295046344
15,7.094563137235823
16,11.583947791567994
17,0.23648431678299176
18,12.406138657253644
2,1, 1, 1, 0,14,30.00,45.00,Tuesday
7,-1.375
8,1762.648528253172
9,1.0
10,179.3940297802914
11,1.0
12,179.3940297802914
13,1762.648528253172
14,12.293469161368437
15,7.218761703859406
16,11.530953663542732
17,0.4882264085069892
18,12.375168747034876
2,1, 1, 1, 0,14,45.00,60.00,Tuesday
7,-1.1
8,1676.1315823352277
9,1.0
10,169.43349014176136
11,1.0
12,169.43349014176136
13,1676.1315823352277
14,12.272700428720882
15,7.320091165281392
16,11.469308307268534
17,0.7390252434066156
18,12.347655469689104
2,1, 1, 1, 0,15, 0.00,15.00,Tuesday
7,-1.1
8,1764.2336451764168
9,1.0
10,178.15692317953907
11,1.0
12,178.15692317953907
13,1764.2336451764168
14,12.336535794551074
15,8.139301801428159
16,11.57372286349596
17,0.8617308009250451
18,12.328276520290239
2,1, 1, 1, 0,15,15.00,30.00,Tuesday
7,-1.1
8,1657.44905719483
9,1.0
10,166.40516310952945
11,1.0
12,166.40516310952945
13,1657.44905719483
14,12.276549962284886
15,7.777890823743095
16,11.45676882974459
17,0.8252308383832769
18,12.3113396639344
2,1, 1, 1, 0,15,30.00,45.00,Tuesday
7,-1.1
8,1397.5312645024297
9,1.0
10,140.8967369711617
11,1.0
12,140.8967369711617
13,1397.5312645024297
14,12.144615682955754
15,6.57357554663241
16,11.12644716446863
17,0.6524026715421769
18,12.284104491630963
2,1, 1, 1, 0,15,45.00,60.00,Tuesday
7,-1.1
8,1150.0543343484979
9,1.0
10,116.57355796743004
11,1.0
12,116.57355796743004
13,1150.0543343484979
14,12.027948515468382
15,5.372089271182666
16,10.792295267352359
17,0.4710609872920486
18,12.235174500114225
2,1, 1, 1, 0,16, 0.00,15.00,Tuesday
7,-1.1
8,912.7487358563033
9,1.0
10,93.14939272689483
11,1.0
12,93.14939272689483
13,912.7487358563033
14,11.907324549130268
15,4.325132139607663
16,10.490395779665733
17,0.37564826139094978
18,12.166099222488608
2,1, 1, 1, 0,16,15.00,30.00,Tuesday
7,-1.1
8,566.636069103818
9,1.0
10,57.94047897402063
11,1.0
12,57.94047897402063
13,566.636069103818
14,11.691182700453066
15,2.207780667375172
16,10.029789236491297
17,0.15476645539024504
18,12.07116297565734
2,1, 1, 1, 0,16,30.00,45.00,Tuesday
7,-1.1
8,439.3280485110057
9,1.0
10,45.38251793443488
11,1.0
12,45.38251793443488
13,439.3280485110057
14,11.601916733930196
15,1.6048852629167168
16,9.810604813093164
17,0.14443550859323296
18,11.965667177238205
2,1, 1, 1, 0,16,45.00,60.00,Tuesday
7,-1.1
8,306.6800834820858
9,1.0
10,32.02625108222755
11,1.0
12,32.02625108222755
13,306.6800834820858
14,11.472544617572702
15,0.7507592791151965
16,9.614160122488216
17,0.13516425836991176
18,11.862603777335206
2,1, 1, 1, 0,17, 0.00,15.00,Tuesday
7,-1.1
8,168.21359625367695
9,1.0
10,17.762198626050539
11,1.0
12,17.762198626050539
13,168.21359625367695
14,11.319607707384194
15,-0.48816106086874908
16,9.369239194451666
17,0.01625503783975546
18,11.759918050258717
2,1, 1, 1, 0,17,15.00,30.00,Tuesday
7,-1.1
8,0.0
9,0.0
10,0.0
11,0.0
12,0.0
13,0.0
14,11.116109937708833
15,-2.31949826575704
16,9.050038988458198
17,-0.22740914561296678
18,11.643845125202529
2,1, 1, 1, 0,17,30.00,45.00,Tuesday
7,-1.1
8,0.0
9,0.0
10,0.0
11,0.0
12,0.0
13,0.0
14,11.049437189015345
15,-2.449411798159214
16,8.953480734775326
17,-0.18751126496010785
18,11.530509232646877
2,1, 1, 1, 0,17,45.00,60.00,Tuesday
7,-1.1
8,0.0
9,0.0
10,0.0
11,0.0
12,0.0
13,0.0
14,10.96632352856973
15,-2.63009394105278
16,8.90157778724813
17,-0.13482433906131065
18,11.434683591585128
2,1, 1, 1, 0,18, 0.00,15.00,Tuesday
7,-1.25
8,0.0
9,0.0
10,0.0
11,0.0
12,0.0
13,0.0
14,10.89485551674292
15,-2.7792659473096599
16,8.804660301839249
17,-0.2824822561885867
18,11.356615847107712
2,1, 1, 1, 0,18,15.00,30.00,Tuesday
7,-1.4
8,0.0
9,0.0
10,0.0
11,0.0
12,0.0
13,0.0
14,10.829303900834676
15,-2.9317528244745145
16,8.724425792000205
17,-0.41372210318024829
18,11.290272548582607
2,1, 1, 1, 0,18,30.00,45.00,Tuesday
7,-1.5499999999999999
8,0.0
9,0.0
10,0.0
11,0.0
12,0.0
13,0.0
14,10.768006491381815
15,-3.0839354807785606
16,8.646515142906651
17,-0.5490064930969538
18,11.22990510503214
2,1, 1, 1, 0,18,45.00,60.00,Tuesday
7,-1.7
8,0.0
9,0.0
10,0.0
11,0.0
12,0.0
13,0.0
14,10.708625086040975
15,-3.236284139301966
16,8.57157364550801
17,-0.6835706981634075
18,11.17213366960265
2,1, 1, 1, 0,19, 0.00,15.00,Tuesday
7,-1.825
8,0.0
9,0.0
10,0.0
11,0.0
12,0.0
13,0.0
14,10.671177364162
15,-3.104836593388105
16,8.480292040607936
17,-0.8828631842748109
18,11.118728620669437
2,1, 1, 1, 0,19,15.00,30.00,Tuesday
7,-1.9500000000000002
8,0.0
9,0.0
10,0.0
11,0.0
12,0.0
13,0.0
14,10.634267774608843
15,-3.0526948874484636
16,8.40459800616702
17,-1.0653100001078997
18,11.07165423011498
2,1, 1, 1, 0,19,30.00,45.00,Tuesday
7,-2.075
8,0.0
9,0.0
10,0.0
11,0.0
12,0.0
13,0.0
14,10.591600160717367
15,-3.1305442819620294
16,8.34700004297082
17,-1.1935267676402646
18,11.029466178294955
2,1, 1, 1, 0,19,45.00,60.00,Tuesday
7,-2.2
8,0.0
9,0.0
10,0.0
11,0.0
12,0.0
13,0.0
14,10.55253413389909
15,-3.1210919942426815
16,8.275859566825944
17,-1.365525638736358
18,10.98910010567208
2,1, 1, 1, 0,20, 0.00,15.00,Tuesday
7,-1.9250000000000003
8,0.0
9,0.0
10,0.0
11,0.0
12,0.0
13,0.0
14,10.52981383029941
15,-2.823078004495648
16,8.296053771509947
17,-1.1615425448280803
18,10.951357450535662
2,1, 1, 1, 0,20,15.00,30.00,Tuesday
7,-1.6500000000000002
8,0.0
9,0.0
10,0.0
11,0.0
12,0.0
13,0.0
14,10.506452471282872
15,-2.5277947019681
16,8.31510562508015
17,-0.9468457330735305
18,10.91684087506845
2,1, 1, 1, 0,20,30.00,45.00,Tuesday
7,-1.375
8,0.0
9,0.0
10,0.0
11,0.0
12,0.0
13,0.0
14,10.485008364114603
15,-2.2336063788393649
16,8.335442237376242
17,-0.7299568841825703
18,10.885094913000773
2,1, 1, 1, 0,20,45.00,60.00,Tuesday
7,-1.1
8,0.0
9,0.0
10,0.0
11,0.0
12,0.0
13,0.0
14,10.465128200002252
15,-1.9405539690583416
16,8.35780682816386
17,-0.5108991281771296
18,10.855385569879374
2,1, 1, 1, 0,21, 0.00,15.00,Tuesday
7,-1.25
8,0.0
9,0.0
10,0.0
11,0.0
12,0.0
13,0.0
14,10.407488778227327
15,-2.2085990741586856
16,8.31840554711414
17,-0.5645327006175194
18,10.821093388550234
2,1, 1, 1, 0,21,15.00,30.00,Tuesday
7,-1.4
8,0.0
9,0.0
10,0.0
11,0.0
12,0.0
13,0.0
14,10.350641362203734
15,-2.4181465200998906
16,8.260870809290509
17,-0.6508036858482456
18,10.777783005144686
2,1, 1, 1, 0,21,30.00,45.00,Tuesday
7,-1.5499999999999999
8,0.0
9,0.0
10,0.0
11,0.0
12,0.0
13,0.0
14,10.281327547175183
15,-2.7449417127079958
16,8.212698154987948
17,-0.6891585108272693
18,10.724934737734248
2,1, 1, 1, 0,21,45.00,60.00,Tuesday
7,-1.7
8,0.0
9,0.0
10,0.0
11,0.0
12,0.0
13,0.0
14,10.206759138456118
15,-3.1765040851861898
16,8.164243804053001
17,-0.693693722484511
18,10.664937571704776
2,1, 1, 1, 0,22, 0.00,15.00,Tuesday
7,-1.5499999999999999
8,0.0
9,0.0
10,0.0
11,0.0
12,0.0
13,0.0
14,10.194339948033412
15,-2.712775941389402
16,8.110702480659768
17,-0.7023622545422086
18,10.610821835160941
2,1, 1, 1, 0,22,15.00,30.00,Tuesday
7,-1.4
8,0.0
9,0.0
10,0.0
11,0.0
12,0.0
13,0.0
14,10.172756594406334
15,-2.3986871167646868
16,8.09550052180873
17,-0.6779949122239941
18,10.569466060139547
2,1, 1, 1, 0,22,30.00,45.00,Tuesday
7,-1.25
8,0.0
9,0.0
10,0.0
11,0.0
12,0.0
13,0.0
14,10.151018464238053
15,-2.185782802689189
16,8.087840263070689
17,-0.5902449181782572
18,10.538261652080271
2,1, 1, 1, 0,22,45.00,60.00,Tuesday
7,-1.1
8,0.0
9,0.0
10,0.0
11,0.0
12,0.0
13,0.0
14,10.133141359634382
15,-1.9161230547814257
16,8.077718785781542
17,-0.531235928620788
18,10.511854354729401
2,1, 1, 1, 0,23, 0.00,15.00,Tuesday
7,-1.25
8,0.0
9,0.0
10,0.0
11,0.0
12,0.0
13,0.0
14,10.074739629044365
15,-2.219272281290184
16,7.988789870597486
17,-0.8162370216787167
18,10.479955632524345
2,1, 1, 1, 0,23,15.00,30.00,Tuesday
7,-1.4
8,0.0
9,0.0
10,0.0
11,0.0
12,0.0
13,0.0
14,10.018488458961276
15,-2.524001422174108
16,7.88696767307988
17,-1.113292313829561
18,10.437905700288458
2,1, 1, 1, 0,23,30.00,45.00,Tuesday
7,-1.5499999999999999
8,0.0
9,0.0
10,0.0
11,0.0
12,0.0
13,0.0
14,9.957339852176764
15,-2.829381544579417
16,7.783071719544864
17,-1.41182235450907
18,10.387233604363449
2,1, 1, 1, 0,23,45.00,60.00,Tuesday
7,-1.7
8,0.0
9,0.0
10,0.0
11,0.0
12,0.0
13,0.0
14,9.892344383624332
15,-3.1351067265430587
16,7.6749404575389239
17,-1.7122765983695559
18,10.331049376217374
2,1, 1, 1, 0,24, 0.00,15.00,Tuesday
7,-1.7
8,0.0
9,0.0
10,0.0
11,0.0
12,0.0
13,0.0
14,9.842545148266942
15,-3.189472242152609
16,7.615208732713427
17,-1.7811248517379
18,10.274839526798667
2,1, 1, 1, 0,24,15.00,30.00,Tuesday
7,-1.7
8,0.0
9,0.0
10,0.0
11,0.0
12,0.0
13,0.0
14,9.790823573362176
15,-3.244337944573663
16,7.560627454519022
17,-1.8457590709258512
18,10.221373858539375
2,1, 1, 1, 0,24,30.00,45.00,Tuesday
7,-1.7
8,0.0
9,0.0
10,0.0
11,0.0
12,0.0
13,0.0
14,9.740323945778613
15,-3.2990981604297184
16,7.505974491129734
17,-1.9101177887631025
18,10.170446989655054
2,1, 1, 1, 0,24,45.00,60.00,Tuesday
7,-1.7
8,0.0
9,0.0
10,0.0
11,0.0
12,0.0
13,0.0
14,9.690690674823058
15,-3.3538635159644496
16,7.452339194708202
17,-1.974104053315159
18,10.120952065398848
End of Data
 Number of Records Written=        1152
