Program Version,EnergyPlus, Version 9.5.0-de239b2e5f, YMD=2023.02.17 15:26
1,5,Environment Title[],Latitude[deg],Longitude[deg],Time Zone[],Elevation[m]
2,8,Day of Simulation[],Month[],Day of Month[],DST Indicator[1=yes 0=no],Hour[],StartMinute[],EndMinute[],DayType
3,5,Cumulative Day of Simulation[],Month[],Day of Month[],DST Indicator[1=yes 0=no],DayType  ! When Daily Report Variables Requested
4,2,Cumulative Days of Simulation[],Month[]  ! When Monthly Report Variables Requested
5,1,Cumulative Days of Simulation[] ! When Run Period Report Variables Requested
6,1,Calendar Year of Simulation[] ! When Annual Report Variables Requested
7,1,Environment,Site Outdoor Air Drybulb Temperature [C] !TimeStep
8,1,ZONE ONE,Zone Windows Total Transmitted Solar Radiation Rate [W] !TimeStep
9,1,ZN001:WALL001,Surface Outside Face Sunlit Fraction [] !TimeStep
10,1,ZN001:WALL001,Surface Outside Face Incident Solar Radiation Rate per Area [W/m2] !TimeStep
11,1,ZN001:WALL001:WIN001,Surface Outside Face Sunlit Fraction [] !TimeStep
12,1,ZN001:WALL001:WIN001,Surface Outside Face Incident Solar Radiation Rate per Area [W/m2] !TimeStep
13,1,ZN001:WALL001:WIN001,Surface Window Transmitted Solar Radiation Rate [W] !TimeStep
14,1,ZN001:WALL001,Surface Inside Face Temperature [C] !TimeStep
15,1,ZN001:WALL001,Surface Outside Face Temperature [C] !TimeStep
16,1,ZN001:WALL001:WIN001,Surface Inside Face Temperature [C] !TimeStep
17,1,ZN001:WALL001:WIN001,Surface Outside Face Temperature [C] !TimeStep
18,1,ZONE ONE,Zone Mean Air Temperature [C] !TimeStep
End of Data Dictionary
1,RUN PERIOD 1,  41.98, -87.92,  -6.00, 201.00
2,1, 1, 1, 0, 1, 0.00,15.00,Tuesday
7,-4.324999999999999
8,0.0
9,0.0
10,0.0
11,0.0
12,0.0
13,0.0
14,2.45527050725421
15,-5.959310674043571
16,-0.25220504139974767
17,-4.226478349968033
18,2.813335826208846
2,1, 1, 1, 0, 1,15.00,30.00,Tuesday
7,-6.949999999999999
8,0.0
9,0.0
10,0.0
11,0.0
12,0.0
13,0.0
14,2.2728238660996715
15,-8.42722594294423
16,-1.1177260572695787
17,-6.125040520026005
18,2.715724078034231
2,1, 1, 1, 0, 1,30.00,45.00,Tuesday
7,-9.575
8,0.0
9,0.0
10,0.0
11,0.0
12,0.0
13,0.0
14,2.0656118410186155
15,-10.903662572691653
16,-1.9863614993657848
17,-8.029632145477024
18,2.5813660774736184
2,1, 1, 1, 0, 1,45.00,60.00,Tuesday
7,-12.2
8,0.0
9,0.0
10,0.0
11,0.0
12,0.0
13,0.0
14,1.8419295706579813
15,-13.386583982225476
16,-2.869178517193916
17,-9.943383079099874
18,2.421117186814866
2,1, 1, 1, 0, 2, 0.00,15.00,Tuesday
7,-12.075
8,0.0
9,0.0
10,0.0
11,0.0
12,0.0
13,0.0
14,1.7765683064440719
15,-13.188281242489003
16,-2.8942295450689246
17,-9.815238572575936
18,2.2778990056956838
2,1, 1, 1, 0, 2,15.00,30.00,Tuesday
7,-11.95
8,0.0
9,0.0
10,0.0
11,0.0
12,0.0
13,0.0
14,1.6962794658559295
15,-13.011171463300139
16,-2.8944851874780399
17,-9.703301151706
18,2.1709965432491997
2,1, 1, 1, 0, 2,30.00,45.00,Tuesday
7,-11.825
8,0.0
9,0.0
10,0.0
11,0.0
12,0.0
13,0.0
14,1.635298391230725
15,-12.832743518350199
16,-2.8921480986736016
17,-9.581744219322673
18,2.094482640353064
2,1, 1, 1, 0, 2,45.00,60.00,Tuesday
7,-11.7
8,0.0
9,0.0
10,0.0
11,0.0
12,0.0
13,0.0
14,1.586943118806943
15,-12.654388725344278
16,-2.877823714774536
17,-9.454453882926658
18,2.035974111847483
2,1, 1, 1, 0, 3, 0.00,15.00,Tuesday
7,-11.549999999999999
8,0.0
9,0.0
10,0.0
11,0.0
12,0.0
13,0.0
14,1.5408963902169386
15,-12.52973481250387
16,-2.852542193629972
17,-9.31808870255361
18,1.9854835564859228
2,1, 1, 1, 0, 3,15.00,30.00,Tuesday
7,-11.399999999999999
8,0.0
9,0.0
10,0.0
11,0.0
12,0.0
13,0.0
14,1.4985598186913974
15,-12.40651327865524
16,-2.8252779536340428
17,-9.181190984454475
18,1.937988633237493
2,1, 1, 1, 0, 3,30.00,45.00,Tuesday
7,-11.25
8,0.0
9,0.0
10,0.0
11,0.0
12,0.0
13,0.0
14,1.4573892954342729
15,-12.284892103300792
16,-2.796284360794516
17,-9.044060499882562
18,1.8918938993214068
2,1, 1, 1, 0, 3,45.00,60.00,Tuesday
7,-11.1
8,0.0
9,0.0
10,0.0
11,0.0
12,0.0
13,0.0
14,1.416900142119534
15,-12.164929256083872
16,-2.766650595878218
17,-8.90718604590893
18,1.846889481174901
2,1, 1, 1, 0, 4, 0.00,15.00,Tuesday
7,-11.1
8,0.0
9,0.0
10,0.0
11,0.0
12,0.0
13,0.0
14,1.372395347980747
15,-12.13460511648686
16,-2.822016434138618
17,-8.94328347872289
18,1.801550298486248
2,1, 1, 1, 0, 4,15.00,30.00,Tuesday
7,-11.1
8,0.0
9,0.0
10,0.0
11,0.0
12,0.0
13,0.0
14,1.328223110346707
15,-12.105468448658244
16,-2.8693231619506038
17,-8.985853240053359
18,1.7553683745219504
2,1, 1, 1, 0, 4,30.00,45.00,Tuesday
7,-11.1
8,0.0
9,0.0
10,0.0
11,0.0
12,0.0
13,0.0
14,1.2836917006815328
15,-12.07795848842871
16,-2.91532620435936
17,-9.02854671197531
18,1.7085685967472697
2,1, 1, 1, 0, 4,45.00,60.00,Tuesday
7,-11.1
8,0.0
9,0.0
10,0.0
11,0.0
12,0.0
13,0.0
14,1.2389526220935728
15,-12.051936174956499
16,-2.9609421960257125
17,-9.070404529506903
18,1.6615115305600877
2,1, 1, 1, 0, 5, 0.00,15.00,Tuesday
7,-10.975
8,0.0
9,0.0
10,0.0
11,0.0
12,0.0
13,0.0
14,1.2001891177429894
15,-11.92981064598618
16,-2.948801339887268
17,-8.996209563796356
18,1.6157572642137957
2,1, 1, 1, 0, 5,15.00,30.00,Tuesday
7,-10.85
8,0.0
9,0.0
10,0.0
11,0.0
12,0.0
13,0.0
14,1.1617120331741813
15,-11.807769601072648
16,-2.9397298408337066
17,-8.914698206538333
18,1.5719194707423026
2,1, 1, 1, 0, 5,30.00,45.00,Tuesday
7,-10.725
8,0.0
9,0.0
10,0.0
11,0.0
12,0.0
13,0.0
14,1.1243902256919283
15,-11.68570255792955
16,-2.9306360641836024
17,-8.832036317935945
18,1.529718371863497
2,1, 1, 1, 0, 5,45.00,60.00,Tuesday
7,-10.6
8,0.0
9,0.0
10,0.0
11,0.0
12,0.0
13,0.0
14,1.088034413157022
15,-11.563643964770068
16,-2.9207920261505935
17,-8.748949327851449
18,1.488680467505706
2,1, 1, 1, 0, 6, 0.00,15.00,Tuesday
7,-10.6
8,0.0
9,0.0
10,0.0
11,0.0
12,0.0
13,0.0
14,1.0443033511493605
15,-11.564534045543722
16,-2.9497345324803065
17,-8.755624182593522
18,1.4470742948044833
2,1, 1, 1, 0, 6,15.00,30.00,Tuesday
7,-10.6
8,0.0
9,0.0
10,0.0
11,0.0
12,0.0
13,0.0
14,1.0011253835396872
15,-11.565338924826513
16,-2.985290458920872
17,-8.76412151445055
18,1.403903818352413
2,1, 1, 1, 0, 6,30.00,45.00,Tuesday
7,-10.6
8,0.0
9,0.0
10,0.0
11,0.0
12,0.0
13,0.0
14,0.957438741965288
15,-11.566193441161954
16,-3.013266211510313
17,-8.775372901336937
18,1.359562943310015
2,1, 1, 1, 0, 6,45.00,60.00,Tuesday
7,-10.6
8,0.0
9,0.0
10,0.0
11,0.0
12,0.0
13,0.0
14,0.9132966762748874
15,-11.567043282221979
16,-3.04830069379841
17,-8.786134162291888
18,1.314508381774211
2,1, 1, 1, 0, 7, 0.00,15.00,Tuesday
7,-10.6
8,0.0
9,0.0
10,0.0
11,0.0
12,0.0
13,0.0
14,0.8712166106638067
15,-11.542023358824859
16,-3.0926679886716785
17,-8.821731000042292
18,1.269407159371989
2,1, 1, 1, 0, 7,15.00,30.00,Tuesday
7,-10.6
8,0.0
9,0.0
10,0.0
11,0.0
12,0.0
13,0.0
14,0.8289233074453358
15,-11.518304842112134
16,-3.134644356789863
17,-8.85775133747245
18,1.2246656231692413
2,1, 1, 1, 0, 7,30.00,45.00,Tuesday
7,-10.6
8,0.0
9,0.0
10,0.0
11,0.0
12,0.0
13,0.0
14,0.786849937301769
15,-11.495788387345123
16,-3.175956791434942
17,-8.893056930624767
18,1.180330871083635
2,1, 1, 1, 0, 7,45.00,60.00,Tuesday
7,-10.6
8,0.0
9,0.0
10,0.0
11,0.0
12,0.0
13,0.0
14,0.745036978411603
15,-11.474402747637015
16,-3.2166542627251148
17,-8.92739321274496
18,1.136328352376874
2,1, 1, 1, 0, 8, 0.00,15.00,Tuesday
7,-10.45
8,0.0
9,0.0
10,0.0
11,0.0
12,0.0
13,0.0
14,0.7026556793903951
15,-11.426509001412134
16,-3.215050152611184
17,-8.87776549407215
18,1.0925830724315298
2,1, 1, 1, 0, 8,15.00,30.00,Tuesday
7,-10.3
8,108.40371609626598
9,1.0
10,22.819555959623899
11,1.0
12,22.819555959623899
13,108.40371609626598
14,0.7742589379345048
15,-9.753378720241918
16,-2.796202133214706
17,-8.453450405781041
18,1.0659898934372468
2,1, 1, 1, 0, 8,30.00,45.00,Tuesday
7,-10.15
8,533.1337584535826
9,1.0
10,109.75755355442667
11,1.0
12,109.75755355442667
13,533.1337584535826
14,1.157677401627257
15,-3.3913112500573505
16,-1.142431147197044
17,-6.9823605823597749
18,1.1028870394136373
2,1, 1, 1, 0, 8,45.00,60.00,Tuesday
7,-10.0
8,972.3709587741021
9,1.0
10,195.8764694434918
11,1.0
12,195.8764694434918
13,972.3709587741021
14,1.636127950452876
15,3.096530251194628
16,0.5901155661916846
17,-5.512872818636424
18,1.2092457772105934
2,1, 1, 1, 0, 9, 0.00,15.00,Tuesday
7,-9.725
8,1413.101027025902
9,1.0
10,278.97248314719988
11,1.0
12,278.97248314719988
13,1413.101027025902
14,2.009074743568538
15,8.27863037907525
16,2.2867266119534408
17,-4.207675901273319
18,1.3636649411153328
2,1, 1, 1, 0, 9,15.00,30.00,Tuesday
7,-9.45
8,1880.9540982906956
9,1.0
10,364.91995730569456
11,1.0
12,364.91995730569456
13,1880.9540982906956
14,2.408007897777548
15,13.359570338642709
16,3.9060705324573066
17,-2.9498152596257798
18,1.5592800770281752
2,1, 1, 1, 0, 9,30.00,45.00,Tuesday
7,-9.175
8,2195.017653741399
9,1.0
10,420.35879993239237
11,1.0
12,420.35879993239237
13,2195.017653741399
14,2.688305371679074
15,16.119048200232798
16,4.934527303887876
17,-2.1805803164712076
18,1.776262102079828
2,1, 1, 1, 0, 9,45.00,60.00,Tuesday
7,-8.9
8,2522.7339307777626
9,1.0
10,478.00138373643099
11,1.0
12,478.00138373643099
13,2522.7339307777626
14,3.016286781903701
15,19.11469276855509
16,5.975329329736439
17,-1.3933588680851017
18,2.005156105218719
2,1, 1, 1, 0,10, 0.00,15.00,Tuesday
7,-8.350000000000002
8,2859.0825306744966
9,1.0
10,536.9185644770597
11,1.0
12,536.9185644770597
13,2859.0825306744966
14,3.28675526100631
15,20.234782395575654
16,7.005284980344413
17,-0.6638218984618902
18,2.246658442708839
2,1, 1, 1, 0,10,15.00,30.00,Tuesday
7,-7.800000000000001
8,3208.4255696711909
9,1.0
10,598.0969199229219
11,1.0
12,598.0969199229219
13,3208.4255696711909
14,3.5828393100856616
15,21.489592625890034
16,8.052934600290087
17,0.06513589602167258
18,2.509224612142899
2,1, 1, 1, 0,10,30.00,45.00,Tuesday
7,-7.25
8,3441.759924212147
9,1.0
10,637.6133352894237
11,1.0
12,637.6133352894237
13,3441.759924212147
14,3.8091095896537197
15,21.551053927356646
16,8.76743235694039
17,0.5305130391246848
18,2.7785838231576149
2,1, 1, 1, 0,10,45.00,60.00,Tuesday
7,-6.7
8,3672.285095472995
9,1.0
10,676.6412284283772
11,1.0
12,676.6412284283772
13,3672.285095472995
14,4.05599391833474
15,21.712632179196637
16,9.461731030997385
17,0.9929033860016148
18,3.0433709792686884
2,1, 1, 1, 0,11, 0.00,15.00,Tuesday
7,-6.275
8,3898.976605856272
9,1.0
10,715.0112779846514
11,1.0
12,715.0112779846514
13,3898.976605856272
14,4.380418738115604
15,23.810210090975749
16,10.26401943725358
17,1.7539942533209115
18,3.3071381449388137
2,1, 1, 1, 0,11,15.00,30.00,Tuesday
7,-5.85
8,4120.418695281419
9,1.0
10,752.5077794605232
11,1.0
12,752.5077794605232
13,4120.418695281419
14,4.692531954007879
15,25.745386622223088
16,11.049338180849418
17,2.496525347442457
18,3.5747922937255547
2,1, 1, 1, 0,11,30.00,45.00,Tuesday
7,-5.425
8,4061.3349039878405
9,1.0
10,742.5988714321785
11,1.0
12,742.5988714321785
13,4061.3349039878405
14,4.874289247793543
15,25.5973906713637
16,11.182030671456346
17,2.7486990603177334
18,3.828968574579232
2,1, 1, 1, 0,11,45.00,60.00,Tuesday
7,-5.0
8,3973.318600181463
9,1.0
10,727.8169025450712
11,1.0
12,727.8169025450712
13,3973.318600181463
14,5.051983735246014
15,25.368183263696677
16,11.22949414075805
17,2.9596482340865579
18,4.057081396751842
2,1, 1, 1, 0,12, 0.00,15.00,Tuesday
7,-4.575
8,3819.366570563894
9,1.0
10,700.3759009170325
11,1.0
12,700.3759009170325
13,3819.366570563894
14,5.1748439569652249
15,24.62558294750034
16,11.107174312841608
17,3.078868342124167
18,4.252485907286622
2,1, 1, 1, 0,12,15.00,30.00,Tuesday
7,-4.15
8,3702.7452501117716
9,1.0
10,681.6705029034473
11,1.0
12,681.6705029034473
13,3702.7452501117716
14,5.318274422431336
15,24.29509751865144
16,11.100620397472426
17,3.2921787782594267
18,4.422993971209458
2,1, 1, 1, 0,12,30.00,45.00,Tuesday
7,-3.7249999999999998
8,3247.235519661027
9,1.0
10,602.01865277251
11,1.0
12,602.01865277251
13,3247.235519661027
14,5.236045534159091
15,21.266812925170475
16,10.238389101611233
17,2.891118811688557
18,4.54771143100938
2,1, 1, 1, 0,12,45.00,60.00,Tuesday
7,-3.3
8,2649.842220663087
9,1.0
10,493.55004396206007
11,1.0
12,493.55004396206007
13,2649.842220663087
14,5.052281343193722
15,17.08828855460263
16,8.870202305706357
17,2.1530100926079287
18,4.603999147590211
2,1, 1, 1, 0,13, 0.00,15.00,Tuesday
7,-3.0249999999999996
8,2181.646900212445
9,1.0
10,412.335026418112
11,1.0
12,412.335026418112
13,2181.646900212445
14,4.922968996889042
15,14.243597336995553
16,7.8383258096015429
17,1.659523531789091
18,4.606127427224994
2,1, 1, 1, 0,13,15.00,30.00,Tuesday
7,-2.75
8,1592.5266577004155
9,1.0
10,305.94037763660148
11,1.0
12,305.94037763660148
13,1592.5266577004155
14,4.643156272560751
15,10.070354390132686
16,6.359311156043873
17,0.8468421968377697
18,4.562407175109183
2,1, 1, 1, 0,13,30.00,45.00,Tuesday
7,-2.475
8,1451.1649141380659
9,1.0
10,281.0763483922329
11,1.0
12,281.0763483922329
13,1451.1649141380659
14,4.622892728253242
15,9.557329100412794
16,6.0753827752205329
17,0.895738385525533
18,4.508025424273446
2,1, 1, 1, 0,13,45.00,60.00,Tuesday
7,-2.2
8,1312.7592709094116
9,1.0
10,256.7721209415886
11,1.0
12,256.7721209415886
13,1312.7592709094116
14,4.591679534669276
15,8.949889795586057
16,5.8413234605717438
17,0.963705843075104
18,4.462326753555001
2,1, 1, 1, 0,14, 0.00,15.00,Tuesday
7,-1.9250000000000003
8,1070.6457842180467
9,1.0
10,210.73276284570657
11,1.0
12,210.73276284570657
13,1070.6457842180467
14,4.47224631804706
15,7.401965115574757
16,5.224224777926224
17,0.7504943112383558
18,4.422182349081963
2,1, 1, 1, 0,14,15.00,30.00,Tuesday
7,-1.6500000000000002
8,948.2485746018327
9,1.0
10,189.38488290342594
11,1.0
12,189.38488290342594
13,948.2485746018327
14,4.446440457373069
15,6.995464015102912
16,4.9900355388817279
17,0.8081612333590442
18,4.387359150885897
2,1, 1, 1, 0,14,30.00,45.00,Tuesday
7,-1.375
8,904.8253795647224
9,1.0
10,179.3940297802914
11,1.0
12,179.3940297802914
13,904.8253795647224
14,4.445740487606681
15,7.116287193008378
16,4.954776929915852
17,0.996828629249876
18,4.360056265624196
2,1, 1, 1, 0,14,45.00,60.00,Tuesday
7,-1.1
8,860.5056534724099
9,1.0
10,169.43349014176136
11,1.0
12,169.43349014176136
13,860.5056534724099
14,4.441954816496424
15,7.214018930317652
16,4.915563424533104
17,1.1817094229416512
18,4.340122852791455
2,1, 1, 1, 0,15, 0.00,15.00,Tuesday
7,-1.1
8,904.7650604994558
9,1.0
10,178.15692317953907
11,1.0
12,178.15692317953907
13,904.7650604994558
14,4.495543859294684
15,8.028980289769569
16,5.0931595127003679
17,1.356510467682142
18,4.330137635081408
2,1, 1, 1, 0,15,15.00,30.00,Tuesday
7,-1.1
8,849.3236181208366
9,1.0
10,166.40516310952945
11,1.0
12,166.40516310952945
13,849.3236181208366
14,4.454862287757905
15,7.666263181832167
16,4.918896166341938
17,1.2659998007685545
18,4.323695179987819
2,1, 1, 1, 0,15,30.00,45.00,Tuesday
7,-1.1
8,714.7046675380757
9,1.0
10,140.8967369711617
11,1.0
12,140.8967369711617
13,714.7046675380757
14,4.35293780443874
15,6.459093052030584
16,4.463178473474841
17,0.9608559981345479
18,4.310720970024001
2,1, 1, 1, 0,15,45.00,60.00,Tuesday
7,-1.1
8,586.9655212300743
9,1.0
10,116.57355796743004
11,1.0
12,116.57355796743004
13,586.9655212300743
14,4.2485642557827669
15,5.247522765815033
16,3.990730529178677
17,0.646610268753534
18,4.283646551739392
2,1, 1, 1, 0,16, 0.00,15.00,Tuesday
7,-1.1
8,464.95417916439495
9,1.0
10,93.14939272689483
11,1.0
12,93.14939272689483
13,464.95417916439495
14,4.1478313754720939
15,4.190926503415518
16,3.588767544664904
17,0.4128542764560734
18,4.241227278407476
2,1, 1, 1, 0,16,15.00,30.00,Tuesday
7,-1.1
8,288.0276650551215
9,1.0
10,57.94047897402063
11,1.0
12,57.94047897402063
13,288.0276650551215
14,3.9738403873085694
15,2.0633317159292647
16,2.9524059325786426
17,-0.02964377542184593
18,4.1767413083111439
2,1, 1, 1, 0,16,30.00,45.00,Tuesday
7,-1.1
8,222.91249157722326
9,1.0
10,45.38251793443488
11,1.0
12,45.38251793443488
13,222.91249157722326
14,3.9102731565833066
15,1.4481019531209645
16,2.7195127630643016
17,-0.14121432080321484
18,4.099188967489071
2,1, 1, 1, 0,16,45.00,60.00,Tuesday
7,-1.1
8,155.3816171753998
9,1.0
10,32.02625108222755
11,1.0
12,32.02625108222755
13,155.3816171753998
14,3.8105222897483039
15,0.578275706756828
16,2.4795486567519449
17,-0.2703788662410034
18,4.016502077264087
2,1, 1, 1, 0,17, 0.00,15.00,Tuesday
7,-1.1
8,85.15688895490742
9,1.0
10,17.762198626050539
11,1.0
12,17.762198626050539
13,85.15688895490742
14,3.68089044029277
15,-0.6818383012574317
16,2.162288843651254
17,-0.5158303745622561
18,3.928792625784825
2,1, 1, 1, 0,17,15.00,30.00,Tuesday
7,-1.1
8,0.0
9,0.0
10,0.0
11,0.0
12,0.0
13,0.0
14,3.501271394876616
15,-2.5230622768730139
16,1.7454580548709374
17,-0.8886477068046474
18,3.82833651390573
2,1, 1, 1, 0,17,30.00,45.00,Tuesday
7,-1.1
8,0.0
9,0.0
10,0.0
11,0.0
12,0.0
13,0.0
14,3.451076228061725
15,-2.6625166085127325
16,1.6768852587527477
17,-0.9090477871354779
18,3.7306653308488646
2,1, 1, 1, 0,17,45.00,60.00,Tuesday
7,-1.1
8,0.0
9,0.0
10,0.0
11,0.0
12,0.0
13,0.0
14,3.3860863708359165
15,-2.8604918414805655
16,1.640563292969091
17,-0.910144730295201
18,3.6491689730091969
2,1, 1, 1, 0,18, 0.00,15.00,Tuesday
7,-1.25
8,0.0
9,0.0
10,0.0
11,0.0
12,0.0
13,0.0
14,3.332691989873156
15,-3.0074224952101327
16,1.546900120800501
17,-1.0347944518201758
18,3.5848235239631949
2,1, 1, 1, 0,18,15.00,30.00,Tuesday
7,-1.4
8,0.0
9,0.0
10,0.0
11,0.0
12,0.0
13,0.0
14,3.284378215886621
15,-3.1598292220412724
16,1.4672869571521119
17,-1.1532459083547338
18,3.5327854005706036
2,1, 1, 1, 0,18,30.00,45.00,Tuesday
7,-1.5499999999999999
8,0.0
9,0.0
10,0.0
11,0.0
12,0.0
13,0.0
14,3.2402969843913609
15,-3.3116593937186118
16,1.3916793619920896
17,-1.270291884742619
18,3.487876206586771
2,1, 1, 1, 0,18,45.00,60.00,Tuesday
7,-1.7
8,0.0
9,0.0
10,0.0
11,0.0
12,0.0
13,0.0
14,3.198355070107775
15,-3.463666319291441
16,1.3187369582201428
17,-1.3862875312916004
18,3.446664917029488
2,1, 1, 1, 0,19, 0.00,15.00,Tuesday
7,-1.825
8,0.0
9,0.0
10,0.0
11,0.0
12,0.0
13,0.0
14,3.183115101100227
15,-3.305751403679633
16,1.241151146811717
17,-1.5084272298689712
18,3.410744052505454
2,1, 1, 1, 0,19,15.00,30.00,Tuesday
7,-1.9500000000000002
8,0.0
9,0.0
10,0.0
11,0.0
12,0.0
13,0.0
14,3.167099342402915
15,-3.2304702539801379
16,1.174610563016813
17,-1.626619294191869
18,3.381772380507601
2,1, 1, 1, 0,19,30.00,45.00,Tuesday
7,-2.075
8,0.0
9,0.0
10,0.0
11,0.0
12,0.0
13,0.0
14,3.1459001506391575
15,-3.301994836591337
16,1.1207831908672006
17,-1.727178588127117
18,3.3583727850812705
2,1, 1, 1, 0,19,45.00,60.00,Tuesday
7,-2.2
8,0.0
9,0.0
10,0.0
11,0.0
12,0.0
13,0.0
14,3.1276754023010624
15,-3.2722370574074874
16,1.0572912394850392
17,-1.8452258072200039
18,3.33751332415124
2,1, 1, 1, 0,20, 0.00,15.00,Tuesday
7,-1.9250000000000003
8,0.0
9,0.0
10,0.0
11,0.0
12,0.0
13,0.0
14,3.126916561161463
15,-2.969197667568516
16,1.1435077913836836
17,-1.6681262613769264
18,3.320116904661871
2,1, 1, 1, 0,20,15.00,30.00,Tuesday
7,-1.6500000000000002
8,0.0
9,0.0
10,0.0
11,0.0
12,0.0
13,0.0
14,3.126383302922346
15,-2.66933978502453
16,1.2175747698619262
17,-1.4628619577298992
18,3.3066604132717138
2,1, 1, 1, 0,20,30.00,45.00,Tuesday
7,-1.375
8,0.0
9,0.0
10,0.0
11,0.0
12,0.0
13,0.0
14,3.128751151572182
15,-2.3708322690621168
16,1.3031643817783448
17,-1.2714990590892513
18,3.2967568031937715
2,1, 1, 1, 0,20,45.00,60.00,Tuesday
7,-1.1
8,0.0
9,0.0
10,0.0
11,0.0
12,0.0
13,0.0
14,3.1318957316706994
15,-2.073693593257381
16,1.3814280094088645
17,-1.0586694690268815
18,3.2894222525200895
2,1, 1, 1, 0,21, 0.00,15.00,Tuesday
7,-1.25
8,0.0
9,0.0
10,0.0
11,0.0
12,0.0
13,0.0
14,3.0893754204932168
15,-2.3626817002283948
16,1.3296464513119304
17,-1.1421385988744533
18,3.2774648782420487
2,1, 1, 1, 0,21,15.00,30.00,Tuesday
7,-1.4
8,0.0
9,0.0
10,0.0
11,0.0
12,0.0
13,0.0
14,3.048580449483512
15,-2.583325542546426
16,1.2699566761074266
17,-1.2402137035679176
18,3.255884276395548
2,1, 1, 1, 0,21,30.00,45.00,Tuesday
7,-1.5499999999999999
8,0.0
9,0.0
10,0.0
11,0.0
12,0.0
13,0.0
14,2.993799105150493
15,-2.937955064917756
16,1.2154547357204138
17,-1.3254635955423738
18,3.223654705256291
2,1, 1, 1, 0,21,45.00,60.00,Tuesday
7,-1.7
8,0.0
9,0.0
10,0.0
11,0.0
12,0.0
13,0.0
14,2.933928511814434
15,-3.401595884791347
16,1.1654032929958476
17,-1.391273324970598
18,3.182983770095649
2,1, 1, 1, 0,22, 0.00,15.00,Tuesday
7,-1.5499999999999999
8,0.0
9,0.0
10,0.0
11,0.0
12,0.0
13,0.0
14,2.946912635691517
15,-2.900172968147697
16,1.16857651863495
17,-1.355425797772
18,3.147519452407686
2,1, 1, 1, 0,22,15.00,30.00,Tuesday
7,-1.4
8,0.0
9,0.0
10,0.0
11,0.0
12,0.0
13,0.0
14,2.9507858585147606
15,-2.5606862642550016
16,1.1920913884430889
17,-1.2713568516512624
18,3.1248564138397088
2,1, 1, 1, 0,22,30.00,45.00,Tuesday
7,-1.25
8,0.0
9,0.0
10,0.0
11,0.0
12,0.0
13,0.0
14,2.9524550894104695
15,-2.3364302138155965
16,1.2296115607608727
17,-1.175154896433014
18,3.113170612958402
2,1, 1, 1, 0,22,45.00,60.00,Tuesday
7,-1.1
8,0.0
9,0.0
10,0.0
11,0.0
12,0.0
13,0.0
14,2.9579942524717079
15,-2.046334170309513
16,1.2699242204421353
17,-1.076554863214028
18,3.107459256222685
2,1, 1, 1, 0,23, 0.00,15.00,Tuesday
7,-1.25
8,0.0
9,0.0
10,0.0
11,0.0
12,0.0
13,0.0
14,2.9148156146620285
15,-2.350023847679284
16,1.1456500722117654
17,-1.322966931395058
18,3.096905571114954
2,1, 1, 1, 0,23,15.00,30.00,Tuesday
7,-1.4
8,0.0
9,0.0
10,0.0
11,0.0
12,0.0
13,0.0
14,2.874528583881949
15,-2.6545774737912888
16,1.0129004384591554
17,-1.5901401304355432
18,3.075815009610267
2,1, 1, 1, 0,23,30.00,45.00,Tuesday
7,-1.5499999999999999
8,0.0
9,0.0
10,0.0
11,0.0
12,0.0
13,0.0
14,2.8298567406236936
15,-2.9597960152126205
16,0.8790373261451236
17,-1.8587670295743238
18,3.044962849013748
2,1, 1, 1, 0,23,45.00,60.00,Tuesday
7,-1.7
8,0.0
9,0.0
10,0.0
11,0.0
12,0.0
13,0.0
14,2.7812269646646357
15,-3.265362800920709
16,0.7426727870794139
17,-2.126970482730826
18,3.007288868792869
2,1, 1, 1, 0,24, 0.00,15.00,Tuesday
7,-1.7
8,0.0
9,0.0
10,0.0
11,0.0
12,0.0
13,0.0
14,2.750871536705074
15,-3.319195217688369
16,0.6968472030163753
17,-2.1881998437536938
18,2.9688913318010967
2,1, 1, 1, 0,24,15.00,30.00,Tuesday
7,-1.7
8,0.0
9,0.0
10,0.0
11,0.0
12,0.0
13,0.0
14,2.7173685428905784
15,-3.3737946165246757
16,0.6536040984758529
17,-2.246021291640716
18,2.9330530513970305
2,1, 1, 1, 0,24,30.00,45.00,Tuesday
7,-1.7
8,0.0
9,0.0
10,0.0
11,0.0
12,0.0
13,0.0
14,2.684842485160641
15,-3.428240476075721
16,0.6098926790185146
17,-2.3037939125861159
18,2.899852639102446
2,1, 1, 1, 0,24,45.00,60.00,Tuesday
7,-1.7
8,0.0
9,0.0
10,0.0
11,0.0
12,0.0
13,0.0
14,2.6530975560309058
15,-3.48268705871948
16,0.5669467802669033
17,-2.361155854230333
18,2.8682687474000305
End of Data
 Number of Records Written=        1152
