Program Version,EnergyPlus, Version 9.5.0-de239b2e5f, YMD=2023.02.17 15:26
1,5,Environment Title[],Latitude[deg],Longitude[deg],Time Zone[],Elevation[m]
2,8,Day of Simulation[],Month[],Day of Month[],DST Indicator[1=yes 0=no],Hour[],StartMinute[],EndMinute[],DayType
3,5,Cumulative Day of Simulation[],Month[],Day of Month[],DST Indicator[1=yes 0=no],DayType  ! When Daily Report Variables Requested
4,2,Cumulative Days of Simulation[],Month[]  ! When Monthly Report Variables Requested
5,1,Cumulative Days of Simulation[] ! When Run Period Report Variables Requested
6,1,Calendar Year of Simulation[] ! When Annual Report Variables Requested
7,1,Environment,Site Outdoor Air Drybulb Temperature [C] !TimeStep
8,1,ZONE ONE,Zone Windows Total Transmitted Solar Radiation Rate [W] !TimeStep
9,1,ZN001:WALL001,Surface Outside Face Sunlit Fraction [] !TimeStep
10,1,ZN001:WALL001,Surface Outside Face Incident Solar Radiation Rate per Area [W/m2] !TimeStep
11,1,ZN001:WALL001:WIN001,Surface Outside Face Sunlit Fraction [] !TimeStep
12,1,ZN001:WALL001:WIN001,Surface Outside Face Incident Solar Radiation Rate per Area [W/m2] !TimeStep
13,1,ZN001:WALL001:WIN001,Surface Window Transmitted Solar Radiation Rate [W] !TimeStep
14,1,ZN001:WALL001,Surface Inside Face Temperature [C] !TimeStep
15,1,ZN001:WALL001,Surface Outside Face Temperature [C] !TimeStep
16,1,ZN001:WALL001:WIN001,Surface Inside Face Temperature [C] !TimeStep
17,1,ZN001:WALL001:WIN001,Surface Outside Face Temperature [C] !TimeStep
18,1,ZONE ONE,Zone Mean Air Temperature [C] !TimeStep
End of Data Dictionary
1,RUN PERIOD 1,  41.98, -87.92,  -6.00, 201.00
2,1, 1, 1, 0, 1, 0.00,15.00,Tuesday
7,-4.324999999999999
8,0.0
9,0.0
10,0.0
11,0.0
12,0.0
13,0.0
14,5.860030222884599
15,-5.897268845090271
16,2.1957584955700897
17,-3.3648708481383666
18,6.297684567244263
2,1, 1, 1, 0, 1,15.00,30.00,Tuesday
7,-6.949999999999999
8,0.0
9,0.0
10,0.0
11,0.0
12,0.0
13,0.0
14,5.669557746468585
15,-8.36483115562412
16,1.3426341118428696
17,-5.2627598254180729
18,6.187662450656896
2,1, 1, 1, 0, 1,30.00,45.00,Tuesday
7,-9.575
8,0.0
9,0.0
10,0.0
11,0.0
12,0.0
13,0.0
14,5.456456367528058
15,-10.840519401871616
16,0.48290695672733366
17,-7.166703547463044
18,6.042052677619113
2,1, 1, 1, 0, 1,45.00,60.00,Tuesday
7,-12.2
8,0.0
9,0.0
10,0.0
11,0.0
12,0.0
13,0.0
14,5.224652982162792
15,-13.322841260742475
16,-0.3916353200354479
17,-9.079253605657869
18,5.871982600666363
2,1, 1, 1, 0, 2, 0.00,15.00,Tuesday
7,-12.075
8,0.0
9,0.0
10,0.0
11,0.0
12,0.0
13,0.0
14,5.147578218157373
15,-13.123998474249444
16,-0.42333864312365679
17,-8.946030187729889
18,5.720366763424709
2,1, 1, 1, 0, 2,15.00,30.00,Tuesday
7,-11.95
8,0.0
9,0.0
10,0.0
11,0.0
12,0.0
13,0.0
14,5.056482947281741
15,-12.947113353052515
16,-0.4338387548370406
17,-8.83813576523005
18,5.605562441307115
2,1, 1, 1, 0, 2,30.00,45.00,Tuesday
7,-11.825
8,0.0
9,0.0
10,0.0
11,0.0
12,0.0
13,0.0
14,4.984952781811909
15,-12.768937538711631
16,-0.44117521002499418
17,-8.720223703188083
18,5.520597330505224
2,1, 1, 1, 0, 2,45.00,60.00,Tuesday
7,-11.7
8,0.0
9,0.0
10,0.0
11,0.0
12,0.0
13,0.0
14,4.925863538556626
15,-12.590854250305386
16,-0.436402799081975
17,-8.596611351483489
18,5.45264096036066
2,1, 1, 1, 0, 3, 0.00,15.00,Tuesday
7,-11.549999999999999
8,0.0
9,0.0
10,0.0
11,0.0
12,0.0
13,0.0
14,4.869085813160262
15,-12.464704130044727
16,-0.41555804045276548
17,-8.453021241334796
18,5.39187817230583
2,1, 1, 1, 0, 3,15.00,30.00,Tuesday
7,-11.399999999999999
8,0.0
9,0.0
10,0.0
11,0.0
12,0.0
13,0.0
14,4.815735474946513
15,-12.33992228091623
16,-0.39328579108826036
17,-8.308262320788458
18,5.333622454635421
2,1, 1, 1, 0, 3,30.00,45.00,Tuesday
7,-11.25
8,0.0
9,0.0
10,0.0
11,0.0
12,0.0
13,0.0
14,4.763412670125022
15,-12.216661466807726
16,-0.36945299241853038
17,-8.163137640613286
18,5.276540094210804
2,1, 1, 1, 0, 3,45.00,60.00,Tuesday
7,-11.1
8,0.0
9,0.0
10,0.0
11,0.0
12,0.0
13,0.0
14,4.711739039493869
15,-12.094976280517198
16,-0.3450117500627812
17,-8.018180664214413
18,5.220462815023972
2,1, 1, 1, 0, 4, 0.00,15.00,Tuesday
7,-11.1
8,0.0
9,0.0
10,0.0
11,0.0
12,0.0
13,0.0
14,4.655833597214551
15,-12.066870336965739
16,-0.41470418327213567
17,-8.067945952492778
18,5.16381286875293
2,1, 1, 1, 0, 4,15.00,30.00,Tuesday
7,-11.1
8,0.0
9,0.0
10,0.0
11,0.0
12,0.0
13,0.0
14,4.60024809336311
15,-12.039864494973754
16,-0.47507763043398656
17,-8.124376968263733
18,5.106084949712484
2,1, 1, 1, 0, 4,30.00,45.00,Tuesday
7,-11.1
8,0.0
9,0.0
10,0.0
11,0.0
12,0.0
13,0.0
14,4.54421751605152
15,-12.014382054924046
16,-0.5340519845026392
17,-8.180860136376055
18,5.047611024485542
2,1, 1, 1, 0, 4,45.00,60.00,Tuesday
7,-11.1
8,0.0
9,0.0
10,0.0
11,0.0
12,0.0
13,0.0
14,4.487952646849848
15,-11.990285869398342
16,-0.5926089940472821
17,-8.23633861412361
18,4.988847031399287
2,1, 1, 1, 0, 5, 0.00,15.00,Tuesday
7,-10.975
8,0.0
9,0.0
10,0.0
11,0.0
12,0.0
13,0.0
14,4.437633928401105
15,-11.86843210809651
16,-0.5894191344146975
17,-8.165550583701759
18,4.931511665714705
2,1, 1, 1, 0, 5,15.00,30.00,Tuesday
7,-10.85
8,0.0
9,0.0
10,0.0
11,0.0
12,0.0
13,0.0
14,4.387654407900476
15,-11.746639227185856
16,-0.5898295583902495
17,-8.087176182059409
18,4.876234281622497
2,1, 1, 1, 0, 5,30.00,45.00,Tuesday
7,-10.725
8,0.0
9,0.0
10,0.0
11,0.0
12,0.0
13,0.0
14,4.338931486739842
15,-11.624817831591458
16,-0.5901945229587113
17,-8.007589305064073
18,4.822676813431247
2,1, 1, 1, 0, 5,45.00,60.00,Tuesday
7,-10.6
8,0.0
9,0.0
10,0.0
11,0.0
12,0.0
13,0.0
14,4.291238220288054
15,-11.50300451792039
16,-0.5897422747477776
17,-7.927550784132734
18,4.7703188314085349
2,1, 1, 1, 0, 6, 0.00,15.00,Tuesday
7,-10.6
8,0.0
9,0.0
10,0.0
11,0.0
12,0.0
13,0.0
14,4.236435594011173
15,-11.50407643094197
16,-0.6316678456412319
17,-7.9350811041121009
18,4.717272385933947
2,1, 1, 1, 0, 6,15.00,30.00,Tuesday
7,-10.6
8,0.0
9,0.0
10,0.0
11,0.0
12,0.0
13,0.0
14,4.182283780180073
15,-11.505093030833518
16,-0.6717141184682305
17,-7.948179684195054
18,4.662744896068553
2,1, 1, 1, 0, 6,30.00,45.00,Tuesday
7,-10.6
8,0.0
9,0.0
10,0.0
11,0.0
12,0.0
13,0.0
14,4.127552061215131
15,-11.506153823505173
16,-0.7114243125717508
17,-7.961965879044101
18,4.60707603271215
2,1, 1, 1, 0, 6,45.00,60.00,Tuesday
7,-10.6
8,0.0
9,0.0
10,0.0
11,0.0
12,0.0
13,0.0
14,4.072493557623978
15,-11.507211814774762
16,-0.7514473164319497
17,-7.975990734020456
18,4.550858828897057
2,1, 1, 1, 0, 7, 0.00,15.00,Tuesday
7,-10.6
8,0.0
9,0.0
10,0.0
11,0.0
12,0.0
13,0.0
14,4.0192967605806999
15,-11.483964131752322
16,-0.8085600668624124
17,-8.024439548277315
18,4.494647888356693
2,1, 1, 1, 0, 7,15.00,30.00,Tuesday
7,-10.6
8,0.0
9,0.0
10,0.0
11,0.0
12,0.0
13,0.0
14,3.96595166165921
15,-11.461927759847539
16,-0.8629513472099006
17,-8.073338444694855
18,4.438765483887915
2,1, 1, 1, 0, 7,30.00,45.00,Tuesday
7,-10.6
8,0.0
9,0.0
10,0.0
11,0.0
12,0.0
13,0.0
14,3.9128373417530666
15,-11.441013573399124
16,-0.9165395480594043
17,-8.121312223443909
18,4.3832485561986609
2,1, 1, 1, 0, 7,45.00,60.00,Tuesday
7,-10.6
8,0.0
9,0.0
10,0.0
11,0.0
12,0.0
13,0.0
14,3.8599866177186596
15,-11.42115391081851
16,-0.9694131027007416
17,-8.168078388493428
18,4.328045294407354
2,1, 1, 1, 0, 8, 0.00,15.00,Tuesday
7,-10.45
8,0.0
9,0.0
10,0.0
11,0.0
12,0.0
13,0.0
14,3.8069042398579788
15,-11.372113385447298
16,-0.971276092053813
17,-8.111748913294435
18,4.27326072227699
2,1, 1, 1, 0, 8,15.00,30.00,Tuesday
7,-10.3
8,181.53280301124716
9,1.0
10,22.819555959623899
11,1.0
12,22.819555959623899
13,181.53280301124716
14,3.8811337955528155
15,-9.698303912614304
16,-0.6538259766073225
17,-7.76027628356087
18,4.2383835080204979
2,1, 1, 1, 0, 8,30.00,45.00,Tuesday
7,-10.15
8,891.3278823594253
9,1.0
10,109.75755355442667
11,1.0
12,109.75755355442667
13,891.3278823594253
14,4.304909437890551
15,-3.327056460203055
16,0.6332680383400202
17,-6.586039409493878
18,4.277613698301659
2,1, 1, 1, 0, 8,45.00,60.00,Tuesday
7,-10.0
8,1620.7840671873826
9,1.0
10,195.8764694434918
11,1.0
12,195.8764694434918
13,1620.7840671873826
14,4.856650770465837
15,3.162320388321909
16,2.0115082613352799
17,-5.388930813043089
18,4.397493115381225
2,1, 1, 1, 0, 9, 0.00,15.00,Tuesday
7,-9.725
8,2347.727724178928
9,1.0
10,278.97248314719988
11,1.0
12,278.97248314719988
13,2347.727724178928
14,5.272149427999721
15,8.330094457270916
16,3.365449189546325
17,-4.3275695592135439
18,4.576474177213102
2,1, 1, 1, 0, 9,15.00,30.00,Tuesday
7,-9.45
8,3114.0096416305138
9,1.0
10,364.91995730569456
11,1.0
12,364.91995730569456
13,3114.0096416305138
14,5.736341394879013
15,13.411127999232637
16,4.852810736497872
17,-3.2248186396864186
18,4.803589228881022
2,1, 1, 1, 0, 9,30.00,45.00,Tuesday
7,-9.175
8,3620.9788466187658
9,1.0
10,420.35879993239237
11,1.0
12,420.35879993239237
13,3620.9788466187658
14,6.070086783021313
15,16.168625185278306
16,5.837825818344072
17,-2.5374766527753538
18,5.0545318077324039
2,1, 1, 1, 0, 9,45.00,60.00,Tuesday
7,-8.9
8,4147.254307348187
9,1.0
10,478.00138373643099
11,1.0
12,478.00138373643099
13,4147.254307348187
14,6.4580643973219049
15,19.16365428073871
16,6.8079497695893
17,-1.8362354477951613
18,5.318241652337031
2,1, 1, 1, 0,10, 0.00,15.00,Tuesday
7,-8.350000000000002
8,4684.648484144343
9,1.0
10,536.9185644770597
11,1.0
12,536.9185644770597
13,4684.648484144343
14,6.793087712881024
15,20.28040356976744
16,7.7742541897014238
17,-1.1709398274898036
18,5.595318124660813
2,1, 1, 1, 0,10,15.00,30.00,Tuesday
7,-7.800000000000001
8,5240.608015714945
9,1.0
10,598.0969199229219
11,1.0
12,598.0969199229219
13,5240.608015714945
14,7.15783741949646
15,21.532725435435
16,8.754498666806513
17,-0.5040009629756241
18,5.891628909007154
2,1, 1, 1, 0,10,30.00,45.00,Tuesday
7,-7.25
8,5605.323921093528
9,1.0
10,637.6133352894237
11,1.0
12,637.6133352894237
13,5605.323921093528
14,7.443350248782875
15,21.591782117685818
16,9.450989545571645
17,-0.05579361566628904
18,6.01570527026747
2,1, 1, 1, 0,10,45.00,60.00,Tuesday
7,-6.7
8,5964.667754902514
9,1.0
10,676.6412284283772
11,1.0
12,676.6412284283772
13,5964.667754902514
14,7.706109616253945
15,21.75023384424305
16,10.105303990806988
17,0.38514319345415518
18,6.261591513199465
2,1, 1, 1, 0,11, 0.00,15.00,Tuesday
7,-6.275
8,6317.474208179253
9,1.0
10,715.0112779846514
11,1.0
12,715.0112779846514
13,6317.474208179253
14,8.017445594274989
15,23.847131933612439
16,10.838055768831737
17,1.0937417197777677
18,6.454478388376151
2,1, 1, 1, 0,11,15.00,30.00,Tuesday
7,-5.85
8,6661.976035385195
9,1.0
10,752.5077794605232
11,1.0
12,752.5077794605232
13,6661.976035385195
14,8.399877505326714
15,25.78415392519781
16,11.585659464806554
17,1.794211655331651
18,6.904411063099708
2,1, 1, 1, 0,11,30.00,45.00,Tuesday
7,-5.425
8,6559.590639127897
9,1.0
10,742.5988714321785
11,1.0
12,742.5988714321785
13,6559.590639127897
14,8.695952379564183
15,25.63794956618189
16,11.811532064071685
17,2.0831385929044474
18,7.306153568943534
2,1, 1, 1, 0,11,45.00,60.00,Tuesday
7,-5.0
8,6413.2938485147019
9,1.0
10,727.8169025450712
11,1.0
12,727.8169025450712
13,6413.2938485147019
14,8.954387246065397
15,25.40908606540287
16,11.957351320612475
17,2.33506688816567
18,7.649431011446836
2,1, 1, 1, 0,12, 0.00,15.00,Tuesday
7,-4.575
8,6161.707695169875
9,1.0
10,700.3759009170325
11,1.0
12,700.3759009170325
13,6161.707695169875
14,9.138631421674909
15,24.667080953897125
16,11.947669074227804
17,2.5134288495464718
18,7.940246226959999
2,1, 1, 1, 0,12,15.00,30.00,Tuesday
7,-4.15
8,5975.124016097185
9,1.0
10,681.6705029034473
11,1.0
12,681.6705029034473
13,5975.124016097185
14,9.306561974063748
15,24.336289980915976
16,12.00102665367217
17,2.758362421608922
18,8.19277317030286
2,1, 1, 1, 0,12,30.00,45.00,Tuesday
7,-3.7249999999999998
8,5245.661247450245
9,1.0
10,602.01865277251
11,1.0
12,602.01865277251
13,5245.661247450245
14,9.253725241403043
15,21.309125799115799
16,11.323771271504768
17,2.4844449535070227
18,8.383628839549834
2,1, 1, 1, 0,12,45.00,60.00,Tuesday
7,-3.3
8,4284.197434080928
9,1.0
10,493.55004396206007
11,1.0
12,493.55004396206007
13,4284.197434080928
14,9.064428728318204
15,17.131039150596306
16,10.1990636179396
17,1.9306999423453136
18,8.485550069540557
2,1, 1, 1, 0,13, 0.00,15.00,Tuesday
7,-3.0249999999999996
8,3537.445593115435
9,1.0
10,412.335026418112
11,1.0
12,412.335026418112
13,3537.445593115435
14,8.935551286121239
15,14.287374146548825
16,9.303607800848568
17,1.548652715701337
18,8.5167217800896
2,1, 1, 1, 0,13,15.00,30.00,Tuesday
7,-2.75
8,2590.853186043415
9,1.0
10,305.94037763660148
11,1.0
12,305.94037763660148
13,2590.853186043415
14,8.622573580001959
15,10.114874484546734
16,7.99465154755535
17,0.9017779267242077
18,8.489002658303914
2,1, 1, 1, 0,13,30.00,45.00,Tuesday
7,-2.475
8,2365.357246120335
9,1.0
10,281.0763483922329
11,1.0
12,281.0763483922329
13,2365.357246120335
14,8.603599312135529
15,9.603204391630588
16,7.751099601183796
17,0.9870512389611008
18,8.442325802445519
2,1, 1, 1, 0,13,45.00,60.00,Tuesday
7,-2.2
8,2144.5586982865008
9,1.0
10,256.7721209415886
11,1.0
12,256.7721209415886
13,2144.5586982865008
14,8.565621131253288
15,8.996117582344084
16,7.578326395398335
17,1.099039825679938
18,8.403299968044186
2,1, 1, 1, 0,14, 0.00,15.00,Tuesday
7,-1.9250000000000003
8,1751.8863449049696
9,1.0
10,210.73276284570657
11,1.0
12,210.73276284570657
13,1751.8863449049696
14,8.420149682719187
15,7.4495601154026549
16,7.103692247779065
17,0.9881608393681063
18,8.366365413808767
2,1, 1, 1, 0,14,15.00,30.00,Tuesday
7,-1.6500000000000002
8,1556.2405744298179
9,1.0
10,189.38488290342594
11,1.0
12,189.38488290342594
13,1556.2405744298179
14,8.385063220955593
15,7.044608925082863
16,6.922815676583355
17,1.0905606189995752
18,8.33183521350225
2,1, 1, 1, 0,14,30.00,45.00,Tuesday
7,-1.375
8,1484.2130869693643
9,1.0
10,179.3940297802914
11,1.0
12,179.3940297802914
13,1484.2130869693643
14,8.3754041007537
15,7.167564343056974
16,6.926040757923715
17,1.314148074955142
18,8.302734582580673
2,1, 1, 1, 0,14,45.00,60.00,Tuesday
7,-1.1
8,1411.362724961817
9,1.0
10,169.43349014176136
11,1.0
12,169.43349014176136
13,1411.362724961817
14,8.360809921260126
15,7.267053091588458
16,6.923227981883429
17,1.5342148955837729
18,8.279025038922463
2,1, 1, 1, 0,15, 0.00,15.00,Tuesday
7,-1.1
8,1485.5478120977
9,1.0
10,178.15692317953907
11,1.0
12,178.15692317953907
13,1485.5478120977
14,8.422138104531987
15,8.084332932813667
16,7.062544961439869
17,1.6905100683636079
18,8.264844833765702
2,1, 1, 1, 0,15,15.00,30.00,Tuesday
7,-1.1
8,1395.6313707719838
9,1.0
10,166.40516310952945
11,1.0
12,166.40516310952945
13,1395.6313707719838
14,8.368908849950845
15,7.7228127093501339
16,6.942610034516747
17,1.642997495399186
18,8.253398028570255
2,1, 1, 1, 0,15,30.00,45.00,Tuesday
7,-1.1
8,1176.7712955684957
9,1.0
10,140.8967369711617
11,1.0
12,140.8967369711617
13,1176.7712955684957
14,8.248416711567675
15,6.5172205683092809
16,6.593239586968423
17,1.420929961573961
18,8.23286366931142
2,1, 1, 1, 0,15,45.00,60.00,Tuesday
7,-1.1
8,968.3868714642877
9,1.0
10,116.57355796743004
11,1.0
12,116.57355796743004
13,968.3868714642877
14,8.11688095176838
15,5.3057438131491019
16,6.2427009982750409
17,1.1926873905601383
18,8.195322091541897
2,1, 1, 1, 0,16, 0.00,15.00,Tuesday
7,-1.1
8,768.567072310748
9,1.0
10,93.14939272689483
11,1.0
12,93.14939272689483
13,768.567072310748
14,8.00420545716653
15,4.257865469355108
16,5.9412226381193709
17,1.049985085089702
18,8.137236951795752
2,1, 1, 1, 0,16,15.00,30.00,Tuesday
7,-1.1
8,477.1278311199492
9,1.0
10,57.94047897402063
11,1.0
12,57.94047897402063
13,477.1278311199492
14,7.798094755874936
15,2.1343220046449007
16,5.459132573329725
17,0.752091164110027
18,8.054038890031395
2,1, 1, 1, 0,16,30.00,45.00,Tuesday
7,-1.1
8,369.92992568872679
9,1.0
10,45.38251793443488
11,1.0
12,45.38251793443488
13,369.92992568872679
14,7.719193815900295
15,1.5257152867751536
16,5.271081482305135
17,0.7134963055340222
18,7.959748152626864
2,1, 1, 1, 0,16,45.00,60.00,Tuesday
7,-1.1
8,258.23559610460418
9,1.0
10,32.02625108222755
11,1.0
12,32.02625108222755
13,258.23559610460418
14,7.5993013882510189
15,0.6634544807411771
16,5.092217291909435
17,0.6712222740452489
18,7.86666996527499
2,1, 1, 1, 0,17, 0.00,15.00,Tuesday
7,-1.1
8,141.6418627784957
9,1.0
10,17.762198626050539
11,1.0
12,17.762198626050539
13,141.6418627784957
14,7.45443397218688
15,-0.5860852459369409
16,4.848539282680349
17,0.5252439174287247
18,7.773323826458375
2,1, 1, 1, 0,17,15.00,30.00,Tuesday
7,-1.1
8,0.0
9,0.0
10,0.0
11,0.0
12,0.0
13,0.0
14,7.258080064896397
15,-2.422660613926383
16,4.505489548045375
17,0.23774810114070989
18,7.666752789078441
2,1, 1, 1, 0,17,30.00,45.00,Tuesday
7,-1.1
8,0.0
9,0.0
10,0.0
11,0.0
12,0.0
13,0.0
14,7.2001668068982609
15,-2.5575194252735429
16,4.453530382964573
17,0.2762571521055861
18,7.562497620672142
2,1, 1, 1, 0,17,45.00,60.00,Tuesday
7,-1.1
8,0.0
9,0.0
10,0.0
11,0.0
12,0.0
13,0.0
14,7.12547526423335
15,-2.747182060709422
16,4.433042840059045
17,0.33035532543613047
18,7.4748549767253789
2,1, 1, 1, 0,18, 0.00,15.00,Tuesday
7,-1.25
8,0.0
9,0.0
10,0.0
11,0.0
12,0.0
13,0.0
14,7.06193020639808
15,-2.895225946518799
16,4.329449998309542
17,0.2025155265500871
18,7.403969817436155
2,1, 1, 1, 0,18,15.00,30.00,Tuesday
7,-1.4
8,0.0
9,0.0
10,0.0
11,0.0
12,0.0
13,0.0
14,7.003628067198255
15,-3.0477340115283075
16,4.241438410473165
17,0.07919011463570769
18,7.344284542603511
2,1, 1, 1, 0,18,30.00,45.00,Tuesday
7,-1.5499999999999999
8,0.0
9,0.0
10,0.0
11,0.0
12,0.0
13,0.0
14,6.949286893874856
15,-3.1998084837226239
16,4.1579203424449819
17,-0.04313007244695655
18,7.290467962033935
2,1, 1, 1, 0,18,45.00,60.00,Tuesday
7,-1.7
8,0.0
9,0.0
10,0.0
11,0.0
12,0.0
13,0.0
14,6.896728117391005
15,-3.3520575779940406
16,4.076939564184272
17,-0.1645900294043372
18,7.239316322869895
2,1, 1, 1, 0,19, 0.00,15.00,Tuesday
7,-1.825
8,0.0
9,0.0
10,0.0
11,0.0
12,0.0
13,0.0
14,6.86841435253185
15,-3.207054701758837
16,3.9562841255123546
17,-0.3683723025197878
18,7.19238434639245
2,1, 1, 1, 0,19,15.00,30.00,Tuesday
7,-1.9500000000000002
8,0.0
9,0.0
10,0.0
11,0.0
12,0.0
13,0.0
14,6.838642175986542
15,-3.1431555377038036
16,3.8528108827235885
17,-0.5599530099807453
18,7.151403932334766
2,1, 1, 1, 0,19,30.00,45.00,Tuesday
7,-2.075
8,0.0
9,0.0
10,0.0
11,0.0
12,0.0
13,0.0
14,6.804467635226386
15,-3.217813633368458
16,3.7854613971351229
17,-0.6841406752860166
18,7.115430682100041
2,1, 1, 1, 0,19,45.00,60.00,Tuesday
7,-2.2
8,0.0
9,0.0
10,0.0
11,0.0
12,0.0
13,0.0
14,6.772670252538634
15,-3.1980775477907805
16,3.6851409763153244
17,-0.8676035100033914
18,7.081376419373026
2,1, 1, 1, 0,20, 0.00,15.00,Tuesday
7,-1.9250000000000003
8,0.0
9,0.0
10,0.0
11,0.0
12,0.0
13,0.0
14,6.7576549621683779
15,-2.8975745684854927
16,3.756461249418294
17,-0.7083631158847084
18,7.050694867460467
2,1, 1, 1, 0,20,15.00,30.00,Tuesday
7,-1.6500000000000002
8,0.0
9,0.0
10,0.0
11,0.0
12,0.0
13,0.0
14,6.743310316917685
15,-2.5999717765776424
16,3.818479150603366
17,-0.5302484936536871
18,7.024208491609767
2,1, 1, 1, 0,20,30.00,45.00,Tuesday
7,-1.375
8,0.0
9,0.0
10,0.0
11,0.0
12,0.0
13,0.0
14,6.731046042788124
15,-2.303619470175691
16,3.875622062652724
17,-0.3368059250986448
18,7.001226197781456
2,1, 1, 1, 0,20,45.00,60.00,Tuesday
7,-1.1
8,0.0
9,0.0
10,0.0
11,0.0
12,0.0
13,0.0
14,6.720783355622585
15,-2.0085074932618229
16,3.9457575927522159
17,-0.15904991119828083
18,6.980869853400831
2,1, 1, 1, 0,21, 0.00,15.00,Tuesday
7,-1.25
8,0.0
9,0.0
10,0.0
11,0.0
12,0.0
13,0.0
14,6.669548924204661
15,-2.287255709786165
16,3.9151245421921887
17,-0.1709618524401435
18,6.956070069818516
2,1, 1, 1, 0,21,15.00,30.00,Tuesday
7,-1.4
8,0.0
9,0.0
10,0.0
11,0.0
12,0.0
13,0.0
14,6.6190159160046468
15,-2.5025713036746279
16,3.861179636444774
17,-0.23472660456104678
18,6.921875184171926
2,1, 1, 1, 0,21,30.00,45.00,Tuesday
7,-1.5499999999999999
8,0.0
9,0.0
10,0.0
11,0.0
12,0.0
13,0.0
14,6.555596987545916
15,-2.8437394143145289
16,3.8362207794662028
17,-0.24537436653884016
18,6.877819018675172
2,1, 1, 1, 0,21,45.00,60.00,Tuesday
7,-1.7
8,0.0
9,0.0
10,0.0
11,0.0
12,0.0
13,0.0
14,6.487142511581316
15,-3.292016958102023
16,3.819715665081503
17,-0.22873537339694395
18,6.826442146929944
2,1, 1, 1, 0,22, 0.00,15.00,Tuesday
7,-1.5499999999999999
8,0.0
9,0.0
10,0.0
11,0.0
12,0.0
13,0.0
14,6.486212919913229
15,-2.808803449132373
16,3.7596271664049256
17,-0.26658696581921506
18,6.780330176687746
2,1, 1, 1, 0,22,15.00,30.00,Tuesday
7,-1.4
8,0.0
9,0.0
10,0.0
11,0.0
12,0.0
13,0.0
14,6.473987592234681
15,-2.481739867354534
16,3.745078168092391
17,-0.27113241823644787
18,6.746367789157561
2,1, 1, 1, 0,22,30.00,45.00,Tuesday
7,-1.25
8,0.0
9,0.0
10,0.0
11,0.0
12,0.0
13,0.0
14,6.462742677084886
15,-2.262996002488836
16,3.758383259855293
17,-0.21398830929842917
18,6.722753692273424
2,1, 1, 1, 0,22,45.00,60.00,Tuesday
7,-1.1
8,0.0
9,0.0
10,0.0
11,0.0
12,0.0
13,0.0
14,6.453054944318163
15,-1.9829362979796004
16,3.758370570087436
17,-0.1946330909408971
18,6.704262798659382
2,1, 1, 1, 0,23, 0.00,15.00,Tuesday
7,-1.25
8,0.0
9,0.0
10,0.0
11,0.0
12,0.0
13,0.0
14,6.400222283886623
15,-2.286327099939743
16,3.6292143258731359
17,-0.44207723625333986
18,6.680103285094878
2,1, 1, 1, 0,23,15.00,30.00,Tuesday
7,-1.4
8,0.0
9,0.0
10,0.0
11,0.0
12,0.0
13,0.0
14,6.349506928922578
15,-2.591042156691099
16,3.493793412307241
17,-0.7067964054803042
18,6.64521115722528
2,1, 1, 1, 0,23,30.00,45.00,Tuesday
7,-1.5499999999999999
8,0.0
9,0.0
10,0.0
11,0.0
12,0.0
13,0.0
14,6.293906419345127
15,-2.896402471724078
16,3.3567197127948704
17,-0.9730301077007653
18,6.600962680118469
2,1, 1, 1, 0,23,45.00,60.00,Tuesday
7,-1.7
8,0.0
9,0.0
10,0.0
11,0.0
12,0.0
13,0.0
14,6.2342638908188869
15,-3.2021071768531899
16,3.215880499514526
17,-1.241129995774486
18,6.550539605980813
2,1, 1, 1, 0,24, 0.00,15.00,Tuesday
7,-1.7
8,0.0
9,0.0
10,0.0
11,0.0
12,0.0
13,0.0
14,6.191088720523461
15,-3.2562617756289
16,3.1617729028843088
17,-1.305792687843791
18,6.500038702569807
2,1, 1, 1, 0,24,15.00,30.00,Tuesday
7,-1.7
8,0.0
9,0.0
10,0.0
11,0.0
12,0.0
13,0.0
14,6.145854418258374
15,-3.311019807128096
16,3.1099926129869006
17,-1.3667310708743799
18,6.452549520812742
2,1, 1, 1, 0,24,30.00,45.00,Tuesday
7,-1.7
8,0.0
9,0.0
10,0.0
11,0.0
12,0.0
13,0.0
14,6.10187391506415
15,-3.3656640375400515
16,3.0580246284184797
17,-1.4276002956308958
18,6.407910446662166
2,1, 1, 1, 0,24,45.00,60.00,Tuesday
7,-1.7
8,0.0
9,0.0
10,0.0
11,0.0
12,0.0
13,0.0
14,6.058815448599685
15,-3.4203112653572007
16,3.006896330792472
17,-1.488211597504744
18,6.3649297641702768
End of Data
 Number of Records Written=        1152
