Program Version,EnergyPlus, Version 9.5.0-de239b2e5f, YMD=2023.02.17 15:25
1,5,Environment Title[],Latitude[deg],Longitude[deg],Time Zone[],Elevation[m]
2,8,Day of Simulation[],Month[],Day of Month[],DST Indicator[1=yes 0=no],Hour[],StartMinute[],EndMinute[],DayType
3,5,Cumulative Day of Simulation[],Month[],Day of Month[],DST Indicator[1=yes 0=no],DayType  ! When Daily Report Variables Requested
4,2,Cumulative Days of Simulation[],Month[]  ! When Monthly Report Variables Requested
5,1,Cumulative Days of Simulation[] ! When Run Period Report Variables Requested
6,1,Calendar Year of Simulation[] ! When Annual Report Variables Requested
7,1,Environment,Site Outdoor Air Drybulb Temperature [C] !TimeStep
8,1,ZONE ONE,Zone Windows Total Transmitted Solar Radiation Rate [W] !TimeStep
9,1,ZN001:WALL001,Surface Outside Face Sunlit Fraction [] !TimeStep
10,1,ZN001:WALL001,Surface Outside Face Incident Solar Radiation Rate per Area [W/m2] !TimeStep
11,1,ZN001:WALL001:WIN001,Surface Outside Face Sunlit Fraction [] !TimeStep
12,1,ZN001:WALL001:WIN001,Surface Outside Face Incident Solar Radiation Rate per Area [W/m2] !TimeStep
13,1,ZN001:WALL001:WIN001,Surface Window Transmitted Solar Radiation Rate [W] !TimeStep
14,1,ZN001:WALL001,Surface Inside Face Temperature [C] !TimeStep
15,1,ZN001:WALL001,Surface Outside Face Temperature [C] !TimeStep
16,1,ZN001:WALL001:WIN001,Surface Inside Face Temperature [C] !TimeStep
17,1,ZN001:WALL001:WIN001,Surface Outside Face Temperature [C] !TimeStep
18,1,ZONE ONE,Zone Mean Air Temperature [C] !TimeStep
End of Data Dictionary
1,RUN PERIOD 1,  41.98, -87.92,  -6.00, 201.00
2,1, 1, 1, 0, 1, 0.00,15.00,Tuesday
7,-4.324999999999999
8,0.0
9,0.0
10,0.0
11,0.0
12,0.0
13,0.0
14,7.810863485299741
15,-5.861786496680005
16,3.9000817369227436
17,-3.0896506269976955
18,8.297379449888928
2,1, 1, 1, 0, 1,15.00,30.00,Tuesday
7,-6.949999999999999
8,0.0
9,0.0
10,0.0
11,0.0
12,0.0
13,0.0
14,7.618005872053042
15,-8.328994482249354
16,3.0979432430712565
17,-5.021833452862552
18,8.18269029218416
2,1, 1, 1, 0, 1,30.00,45.00,Tuesday
7,-9.575
8,0.0
9,0.0
10,0.0
11,0.0
12,0.0
13,0.0
14,7.402786934749731
15,-10.80424568681322
16,2.2882474825369174
17,-6.95996291143183
18,8.03367179026682
2,1, 1, 1, 0, 1,45.00,60.00,Tuesday
7,-12.2
8,0.0
9,0.0
10,0.0
11,0.0
12,0.0
13,0.0
14,7.170223760364758
15,-13.286146027316665
16,1.4632305831648865
17,-8.90628470906637
18,7.861464188671137
2,1, 1, 1, 0, 2, 0.00,15.00,Tuesday
7,-12.075
8,0.0
9,0.0
10,0.0
11,0.0
12,0.0
13,0.0
14,7.0873027709434359
15,-13.087026196433007
16,1.4205548038084999
17,-8.764996123332196
18,7.707692205872488
2,1, 1, 1, 0, 2,15.00,30.00,Tuesday
7,-11.95
8,0.0
9,0.0
10,0.0
11,0.0
12,0.0
13,0.0
14,6.991890841720893
15,-12.910206651901257
16,1.4002580122033806
17,-8.654521064290976
18,7.589947240205567
2,1, 1, 1, 0, 2,30.00,45.00,Tuesday
7,-11.825
8,0.0
9,0.0
10,0.0
11,0.0
12,0.0
13,0.0
14,6.915469540143721
15,-12.732172179540499
16,1.3784323294920569
17,-8.523129705541067
18,7.500999130053277
2,1, 1, 1, 0, 2,45.00,60.00,Tuesday
7,-11.7
8,0.0
9,0.0
10,0.0
11,0.0
12,0.0
13,0.0
14,6.8512336236886279
15,-12.55423607634568
16,1.3777279416162288
17,-8.406322229213572
18,7.428314820821287
2,1, 1, 1, 0, 3, 0.00,15.00,Tuesday
7,-11.549999999999999
8,0.0
9,0.0
10,0.0
11,0.0
12,0.0
13,0.0
14,6.789071161540093
15,-12.427203987868575
16,1.3852412334896372
17,-8.247760950005727
18,7.362287539734351
2,1, 1, 1, 0, 3,15.00,30.00,Tuesday
7,-11.399999999999999
8,0.0
9,0.0
10,0.0
11,0.0
12,0.0
13,0.0
14,6.730267900401056
15,-12.301503510311806
16,1.4024748294847314
17,-8.107829401986635
18,7.298546939289201
2,1, 1, 1, 0, 3,30.00,45.00,Tuesday
7,-11.25
8,0.0
9,0.0
10,0.0
11,0.0
12,0.0
13,0.0
14,6.672293932935743
15,-12.177272923910162
16,1.412734810700158
17,-7.947988268491997
18,7.235807825460806
2,1, 1, 1, 0, 3,45.00,60.00,Tuesday
7,-11.1
8,0.0
9,0.0
10,0.0
11,0.0
12,0.0
13,0.0
14,6.615049819302703
15,-12.054572590258163
16,1.4322409563327483
17,-7.807399505629235
18,7.1740571680426259
2,1, 1, 1, 0, 4, 0.00,15.00,Tuesday
7,-11.1
8,0.0
9,0.0
10,0.0
11,0.0
12,0.0
13,0.0
14,6.5535202711220938
15,-12.027732863285742
16,1.3579865909664478
17,-7.861662078197355
18,7.111760291360925
2,1, 1, 1, 0, 4,15.00,30.00,Tuesday
7,-11.1
8,0.0
9,0.0
10,0.0
11,0.0
12,0.0
13,0.0
14,6.492348579582335
15,-12.001939454991012
16,1.2925563883053429
17,-7.922105863659908
18,7.048409589718406
2,1, 1, 1, 0, 4,30.00,45.00,Tuesday
7,-11.1
8,0.0
9,0.0
10,0.0
11,0.0
12,0.0
13,0.0
14,6.430746340470971
15,-11.977609328650195
16,1.2283781508649554
17,-7.9823752469352489
18,6.984333669089046
2,1, 1, 1, 0, 4,45.00,60.00,Tuesday
7,-11.1
8,0.0
9,0.0
10,0.0
11,0.0
12,0.0
13,0.0
14,6.368929398719203
15,-11.954607663708084
16,1.1645765410813738
17,-8.041522173779584
18,6.919988289516513
2,1, 1, 1, 0, 5, 0.00,15.00,Tuesday
7,-10.975
8,0.0
9,0.0
10,0.0
11,0.0
12,0.0
13,0.0
14,6.3129855633669
15,-11.832888600330933
16,1.1596082966974564
17,-7.969755590848422
18,6.857073692802673
2,1, 1, 1, 0, 5,15.00,30.00,Tuesday
7,-10.85
8,0.0
9,0.0
10,0.0
11,0.0
12,0.0
13,0.0
14,6.2573843927776
15,-11.711220272891284
16,1.1509055250240863
17,-7.8900747009414549
18,6.796197156099437
2,1, 1, 1, 0, 5,30.00,45.00,Tuesday
7,-10.725
8,0.0
9,0.0
10,0.0
11,0.0
12,0.0
13,0.0
14,6.203046102996126
15,-11.589523391742299
16,1.1423036030656704
17,-7.809211059718052
18,6.7370124931570249
2,1, 1, 1, 0, 5,45.00,60.00,Tuesday
7,-10.6
8,0.0
9,0.0
10,0.0
11,0.0
12,0.0
13,0.0
14,6.149735595999124
15,-11.467834674911636
16,1.134556091418574
17,-7.727927302851526
18,6.679005200356662
2,1, 1, 1, 0, 6, 0.00,15.00,Tuesday
7,-10.6
8,0.0
9,0.0
10,0.0
11,0.0
12,0.0
13,0.0
14,6.089505384421833
15,-11.468995789709548
16,1.0872165943982282
17,-7.73583759191547
18,6.620320740754473
2,1, 1, 1, 0, 6,15.00,30.00,Tuesday
7,-10.6
8,0.0
9,0.0
10,0.0
11,0.0
12,0.0
13,0.0
14,6.029935402862227
15,-11.47011481533624
16,1.0418004446214014
17,-7.749422448944188
18,6.560198530216866
2,1, 1, 1, 0, 6,30.00,45.00,Tuesday
7,-10.6
8,0.0
9,0.0
10,0.0
11,0.0
12,0.0
13,0.0
14,5.9698033003969759
15,-11.471277193261754
16,0.9967055884392835
17,-7.763664283609387
18,6.498991302506902
2,1, 1, 1, 0, 6,45.00,60.00,Tuesday
7,-10.6
8,0.0
9,0.0
10,0.0
11,0.0
12,0.0
13,0.0
14,5.909372706249164
15,-11.472436029355356
16,0.9513011131284657
17,-7.77811976434981
18,6.4372876313217219
2,1, 1, 1, 0, 7, 0.00,15.00,Tuesday
7,-10.6
8,0.0
9,0.0
10,0.0
11,0.0
12,0.0
13,0.0
14,5.8507368940029809
15,-11.450202730102302
16,0.8888435769964644
17,-7.829954726266919
18,6.375624579072693
2,1, 1, 1, 0, 7,15.00,30.00,Tuesday
7,-10.6
8,0.0
9,0.0
10,0.0
11,0.0
12,0.0
13,0.0
14,5.791986502126484
15,-11.429127662587563
16,0.829244209267813
17,-7.882372824787126
18,6.3143125749335688
2,1, 1, 1, 0, 7,30.00,45.00,Tuesday
7,-10.6
8,0.0
9,0.0
10,0.0
11,0.0
12,0.0
13,0.0
14,5.733488494630032
15,-11.409128226136627
16,0.7704541298550112
17,-7.933787960204825
18,6.253382570620796
2,1, 1, 1, 0, 7,45.00,60.00,Tuesday
7,-10.6
8,0.0
9,0.0
10,0.0
11,0.0
12,0.0
13,0.0
14,5.675270468499422
15,-11.39013935686571
16,0.7123855798482737
17,-7.983909085794721
18,6.192780285204544
2,1, 1, 1, 0, 8, 0.00,15.00,Tuesday
7,-10.45
8,0.0
9,0.0
10,0.0
11,0.0
12,0.0
13,0.0
14,5.616930502706792
15,-11.340408971407781
16,0.7041356601933444
17,-7.924605592300281
18,6.132609796937981
2,1, 1, 1, 0, 8,15.00,30.00,Tuesday
7,-10.3
8,215.5879980222353
9,1.0
10,22.819555959623899
11,1.0
12,22.819555959623899
13,215.5879980222353
14,5.691502791040289
15,-9.666283715753849
16,0.9853214687451555
17,-7.596368530629661
18,6.093761236495505
2,1, 1, 1, 0, 8,30.00,45.00,Tuesday
7,-10.15
8,1058.5392312119832
9,1.0
10,109.75755355442667
11,1.0
12,109.75755355442667
13,1058.5392312119832
14,6.131175605281589
15,-3.290396392004806
16,2.148126270941475
17,-6.529962060019329
18,6.134545296851258
2,1, 1, 1, 0, 8,45.00,60.00,Tuesday
7,-10.0
8,1924.8399544048012
9,1.0
10,195.8764694434918
11,1.0
12,195.8764694434918
13,1924.8399544048012
14,6.732402147199578
15,3.2235504829465788
16,3.4010428723792645
17,-5.447610105014064
18,6.260868667167883
2,1, 1, 1, 0, 9, 0.00,15.00,Tuesday
7,-9.725
8,2788.1568045040946
9,1.0
10,278.97248314719988
11,1.0
12,278.97248314719988
13,2788.1568045040946
14,7.150824925109742
15,8.356560038399746
16,4.628096218741518
17,-4.5046470619448659
18,6.4507173155466239
2,1, 1, 1, 0, 9,15.00,30.00,Tuesday
7,-9.45
8,3698.191694964431
9,1.0
10,364.91995730569456
11,1.0
12,364.91995730569456
13,3698.191694964431
14,7.6455179428348
15,13.44119006390229
16,5.941149141182507
17,-3.539961556697506
18,6.6943989237404148
2,1, 1, 1, 0, 9,30.00,45.00,Tuesday
7,-9.175
8,4300.2673206835229
9,1.0
10,420.35879993239237
11,1.0
12,420.35879993239237
13,4300.2673206835229
14,8.005169842391894
15,16.19697543523165
16,6.890531456643089
17,-2.9110944397672258
18,6.964721729323255
2,1, 1, 1, 0, 9,45.00,60.00,Tuesday
7,-8.9
8,4925.271017558337
9,1.0
10,478.00138373643099
11,1.0
12,478.00138373643099
13,4925.271017558337
14,8.423163088936646
15,19.191673056387189
16,7.824150985100687
17,-2.279164800064109
18,7.247995373861883
2,1, 1, 1, 0,10, 0.00,15.00,Tuesday
7,-8.350000000000002
8,5563.47927965646
9,1.0
10,536.9185644770597
11,1.0
12,536.9185644770597
13,5563.47927965646
14,8.7903039523943
15,20.306405857529464
16,8.755209032284484
17,-1.6582903791930904
18,7.544977592271251
2,1, 1, 1, 0,10,15.00,30.00,Tuesday
7,-7.800000000000001
8,6223.735720388039
9,1.0
10,598.0969199229219
11,1.0
12,598.0969199229219
13,6223.735720388039
14,9.189142564679396
15,21.55726659576371
16,9.697940541546246
17,-1.0334359219899625
18,7.685079838745164
2,1, 1, 1, 0,10,30.00,45.00,Tuesday
7,-7.25
8,6656.871608685562
9,1.0
10,637.6133352894237
11,1.0
12,637.6133352894237
13,6656.871608685562
14,9.46219980582782
15,21.613730565519476
16,10.365330409815613
17,-0.6051329701363102
18,7.9558613559769599
2,1, 1, 1, 0,10,45.00,60.00,Tuesday
7,-6.7
8,7083.627635407371
9,1.0
10,676.6412284283772
11,1.0
12,676.6412284283772
13,7083.627635407371
14,9.727334772110432
15,21.771142720599966
16,10.98128059612344
17,-0.1830070130419017
18,8.157191154677568
2,1, 1, 1, 0,11, 0.00,15.00,Tuesday
7,-6.275
8,7502.619881932496
9,1.0
10,715.0112779846514
11,1.0
12,715.0112779846514
13,7502.619881932496
14,10.147555902621026
15,23.870833012480195
16,11.709667073447804
17,0.4847967365327577
18,8.62070002719156
2,1, 1, 1, 0,11,15.00,30.00,Tuesday
7,-5.85
8,7911.749570952164
9,1.0
10,752.5077794605232
11,1.0
12,752.5077794605232
13,7911.749570952164
14,10.620742751693215
15,25.808189170876948
16,12.475588807554346
17,1.1629938726196656
18,9.053855248905096
2,1, 1, 1, 0,11,30.00,45.00,Tuesday
7,-5.425
8,7790.156876744835
9,1.0
10,742.5988714321785
11,1.0
12,742.5988714321785
13,7790.156876744835
14,10.9116067529731
15,25.660289946492666
16,12.735992280652738
17,1.48357641203404
18,9.458783087390158
2,1, 1, 1, 0,11,45.00,60.00,Tuesday
7,-5.0
8,7616.415097398768
9,1.0
10,727.8169025450712
11,1.0
12,727.8169025450712
13,7616.415097398768
14,11.189907738244206
15,25.432225721543135
16,12.906365667826094
17,1.7562736790373493
18,9.818423739018027
2,1, 1, 1, 0,12, 0.00,15.00,Tuesday
7,-4.575
8,7317.63187899619
9,1.0
10,700.3759009170325
11,1.0
12,700.3759009170325
13,7317.63187899619
14,11.390583317043808
15,24.69040953153422
16,12.938552556052628
17,1.9692451884656066
18,10.128405443267969
2,1, 1, 1, 0,12,15.00,30.00,Tuesday
7,-4.15
8,7096.045470548525
9,1.0
10,681.6705029034473
11,1.0
12,681.6705029034473
13,7096.045470548525
14,11.611419763643763
15,24.360781982928967
16,13.04089010437906
17,2.2472323390733779
18,10.401303770256906
2,1, 1, 1, 0,12,30.00,45.00,Tuesday
7,-3.7249999999999998
8,6229.736928425406
9,1.0
10,602.01865277251
11,1.0
12,602.01865277251
13,6229.736928425406
14,11.525000500640333
15,21.332117958623657
16,12.458854459316115
17,2.0628436328339605
18,10.61207895274266
2,1, 1, 1, 0,12,45.00,60.00,Tuesday
7,-3.3
8,5087.904404183855
9,1.0
10,493.55004396206007
11,1.0
12,493.55004396206007
13,5087.904404183855
14,11.331653312737288
15,17.155086135318418
16,11.433292222440344
17,1.620956941974896
18,10.728360264264682
2,1, 1, 1, 0,13, 0.00,15.00,Tuesday
7,-3.0249999999999996
8,4201.063393949559
9,1.0
10,412.335026418112
11,1.0
12,412.335026418112
13,4201.063393949559
14,11.19914330133603
15,14.311844202286452
16,10.588992018584577
17,1.3231916491392895
18,10.769906568158343
2,1, 1, 1, 0,13,15.00,30.00,Tuesday
7,-2.75
8,3076.892122430221
9,1.0
10,305.94037763660148
11,1.0
12,305.94037763660148
13,3076.892122430221
14,10.8689340357172
15,10.139615860938214
16,9.460836694420039
17,0.8156583775961508
18,10.745519950087129
2,1, 1, 1, 0,13,30.00,45.00,Tuesday
7,-2.475
8,2809.0935899127655
9,1.0
10,281.0763483922329
11,1.0
12,281.0763483922329
13,2809.0935899127655
14,10.84788309338071
15,9.628669854642459
16,9.243327229729971
17,0.9341167503111478
18,10.697989207235266
2,1, 1, 1, 0,13,45.00,60.00,Tuesday
7,-2.2
8,2546.8736709552365
9,1.0
10,256.7721209415886
11,1.0
12,256.7721209415886
13,2546.8736709552365
14,10.806651314567479
15,9.021995456949013
16,9.100405618691525
17,1.0809334818287653
18,10.657001352552986
2,1, 1, 1, 0,14, 0.00,15.00,Tuesday
7,-1.9250000000000003
8,2080.536760270814
9,1.0
10,210.73276284570657
11,1.0
12,210.73276284570657
13,2080.536760270814
14,10.64708253724274
15,7.476073844109192
16,8.685271557124793
17,1.0282373871801838
18,10.616618773745842
2,1, 1, 1, 0,14,15.00,30.00,Tuesday
7,-1.6500000000000002
8,1848.1882299855229
9,1.0
10,189.38488290342594
11,1.0
12,189.38488290342594
13,1848.1882299855229
14,10.605764899528712
15,7.071622153009799
16,8.522531841561545
17,1.1635027057503749
18,10.577816860982568
2,1, 1, 1, 0,14,30.00,45.00,Tuesday
7,-1.375
8,1762.648528253172
9,1.0
10,179.3940297802914
11,1.0
12,179.3940297802914
13,1762.648528253172
14,10.59031761418068
15,7.19645113257542
16,8.522864291444308
17,1.4015020646994572
18,10.54386032832833
2,1, 1, 1, 0,14,45.00,60.00,Tuesday
7,-1.1
8,1676.1315823352277
9,1.0
10,169.43349014176136
11,1.0
12,169.43349014176136
13,1676.1315823352277
14,10.570964402419176
15,7.2969820517860859
16,8.516527265972798
17,1.6366655932974937
18,10.5146644775418
2,1, 1, 1, 0,15, 0.00,15.00,Tuesday
7,-1.1
8,1764.2336451764168
9,1.0
10,178.15692317953907
11,1.0
12,178.15692317953907
13,1764.2336451764168
14,10.63623725445545
15,8.115741482567924
16,8.636302417084039
17,1.7837166374305867
18,10.494680948220204
2,1, 1, 1, 0,15,15.00,30.00,Tuesday
7,-1.1
8,1657.44905719483
9,1.0
10,166.40516310952945
11,1.0
12,166.40516310952945
13,1657.44905719483
14,10.576333019047418
15,7.754610072744672
16,8.531459484421362
17,1.752338656646316
18,10.477040492780969
2,1, 1, 1, 0,15,30.00,45.00,Tuesday
7,-1.1
8,1397.5312645024297
9,1.0
10,140.8967369711617
11,1.0
12,140.8967369711617
13,1397.5312645024297
14,10.445256028728116
15,6.549807924823409
16,8.218583687047385
17,1.5675901640117332
18,10.450364047153814
2,1, 1, 1, 0,15,45.00,60.00,Tuesday
7,-1.1
8,1150.0543343484979
9,1.0
10,116.57355796743004
11,1.0
12,116.57355796743004
13,1150.0543343484979
14,10.297340436604003
15,5.3366790124043279
16,7.900722266786431
17,1.3765385223314866
18,10.408857904865532
2,1, 1, 1, 0,16, 0.00,15.00,Tuesday
7,-1.1
8,912.7487358563033
9,1.0
10,93.14939272689483
11,1.0
12,93.14939272689483
13,912.7487358563033
14,10.183607414861023
15,4.295946577531215
16,7.627685956477308
17,1.275717760731311
18,10.349634818127982
2,1, 1, 1, 0,16,15.00,30.00,Tuesday
7,-1.1
8,566.636069103818
9,1.0
10,57.94047897402063
11,1.0
12,57.94047897402063
13,566.636069103818
14,9.964990474049886
15,2.174776979021323
16,7.19425592813684
17,1.0394102056245629
18,10.264400663824448
2,1, 1, 1, 0,16,30.00,45.00,Tuesday
7,-1.1
8,439.3280485110057
9,1.0
10,45.38251793443488
11,1.0
12,45.38251793443488
13,439.3280485110057
14,9.88077523899645
15,1.569861318264323
16,7.017529305695803
17,1.034666736564759
18,10.166629161689395
2,1, 1, 1, 0,16,45.00,60.00,Tuesday
7,-1.1
8,306.6800834820858
9,1.0
10,32.02625108222755
11,1.0
12,32.02625108222755
13,306.6800834820858
14,9.753544501751149
15,0.7119759898085842
16,6.8557953677671439
17,1.0301642601951926
18,10.069342982616924
2,1, 1, 1, 0,17, 0.00,15.00,Tuesday
7,-1.1
8,168.21359625367695
9,1.0
10,17.762198626050539
11,1.0
12,17.762198626050539
13,168.21359625367695
14,9.601392380438446
15,-0.5317077313174075
16,6.6317689450452239
17,0.9223084598656328
18,9.97105446865018
2,1, 1, 1, 0,17,15.00,30.00,Tuesday
7,-1.1
8,0.0
9,0.0
10,0.0
11,0.0
12,0.0
13,0.0
14,9.396843868459893
15,-2.365514039710098
16,6.308881478608669
17,0.6620005834323592
18,9.858201349580297
2,1, 1, 1, 0,17,30.00,45.00,Tuesday
7,-1.1
8,0.0
9,0.0
10,0.0
11,0.0
12,0.0
13,0.0
14,9.333315297298596
15,-2.4976381343984874
16,6.25348783788138
17,0.7205898622150926
18,9.747600810253344
2,1, 1, 1, 0,17,45.00,60.00,Tuesday
7,-1.1
8,0.0
9,0.0
10,0.0
11,0.0
12,0.0
13,0.0
14,9.252372045686652
15,-2.6824550699833247
16,6.230353138623457
17,0.7914030591402934
18,9.654367788148818
2,1, 1, 1, 0,18, 0.00,15.00,Tuesday
7,-1.25
8,0.0
9,0.0
10,0.0
11,0.0
12,0.0
13,0.0
14,9.182709676351605
15,-2.831145102400676
16,6.12220341436614
17,0.6584327599636595
18,9.578332063040893
2,1, 1, 1, 0,18,15.00,30.00,Tuesday
7,-1.4
8,0.0
9,0.0
10,0.0
11,0.0
12,0.0
13,0.0
14,9.118631298516636
15,-2.9837011349476385
16,6.031596118511288
17,0.5317518213265657
18,9.513470389389016
2,1, 1, 1, 0,18,30.00,45.00,Tuesday
7,-1.5499999999999999
8,0.0
9,0.0
10,0.0
11,0.0
12,0.0
13,0.0
14,9.058554794639694
15,-3.135900112739063
16,5.945582080373811
17,0.4059340531923681
18,9.454223036096188
2,1, 1, 1, 0,18,45.00,60.00,Tuesday
7,-1.7
8,0.0
9,0.0
10,0.0
11,0.0
12,0.0
13,0.0
14,9.000204668032657
15,-3.2882716636841335
16,5.862127740818323
17,0.2808986697897353
18,9.397379791812123
2,1, 1, 1, 0,19, 0.00,15.00,Tuesday
7,-1.825
8,0.0
9,0.0
10,0.0
11,0.0
12,0.0
13,0.0
14,8.964053667597625
15,-3.1507471881964315
16,5.73267175512251
17,0.05114307402823215
18,9.34436750396033
2,1, 1, 1, 0,19,15.00,30.00,Tuesday
7,-1.9500000000000002
8,0.0
9,0.0
10,0.0
11,0.0
12,0.0
13,0.0
14,8.927302165266206
15,-3.0933483922483306
16,5.620377810222237
17,-0.16732724182656967
18,9.296984558237894
2,1, 1, 1, 0,19,30.00,45.00,Tuesday
7,-2.075
8,0.0
9,0.0
10,0.0
11,0.0
12,0.0
13,0.0
14,8.886354350142746
15,-3.169810350266786
16,5.549246490402425
17,-0.3014042040078948
18,9.254456815402742
2,1, 1, 1, 0,19,45.00,60.00,Tuesday
7,-2.2
8,0.0
9,0.0
10,0.0
11,0.0
12,0.0
13,0.0
14,8.847548915794644
15,-3.1557970470233358
16,5.439734379442768
17,-0.5103497372024322
18,9.213682983045367
2,1, 1, 1, 0,20, 0.00,15.00,Tuesday
7,-1.9250000000000003
8,0.0
9,0.0
10,0.0
11,0.0
12,0.0
13,0.0
14,8.826472625233575
15,-2.856709672526725
16,5.498431190930432
17,-0.3541545339938921
18,9.176339956241212
2,1, 1, 1, 0,20,15.00,30.00,Tuesday
7,-1.6500000000000002
8,0.0
9,0.0
10,0.0
11,0.0
12,0.0
13,0.0
14,8.80482913084242
15,-2.5604351505156979
16,5.541676390156681
17,-0.16841322039385887
18,9.14313806307058
2,1, 1, 1, 0,20,30.00,45.00,Tuesday
7,-1.375
8,0.0
9,0.0
10,0.0
11,0.0
12,0.0
13,0.0
14,8.785606258385418
15,-2.2652997427034875
16,5.595631270447598
17,0.0034020664274976299
18,9.113478817198141
2,1, 1, 1, 0,20,45.00,60.00,Tuesday
7,-1.1
8,0.0
9,0.0
10,0.0
11,0.0
12,0.0
13,0.0
14,8.768121508826438
15,-1.97134122585859
16,5.642646348877065
17,0.1972841867484476
18,9.086255911335473
2,1, 1, 1, 0,21, 0.00,15.00,Tuesday
7,-1.25
8,0.0
9,0.0
10,0.0
11,0.0
12,0.0
13,0.0
14,8.711631784345889
15,-2.2442884861047269
16,5.6246710598203439
17,0.19695410134693248
18,9.054670294838008
2,1, 1, 1, 0,21,15.00,30.00,Tuesday
7,-1.4
8,0.0
9,0.0
10,0.0
11,0.0
12,0.0
13,0.0
14,8.65579019087259
15,-2.456490134083791
16,5.570017050780166
17,0.14556810078988748
18,9.013833632349119
2,1, 1, 1, 0,21,30.00,45.00,Tuesday
7,-1.5499999999999999
8,0.0
9,0.0
10,0.0
11,0.0
12,0.0
13,0.0
14,8.58760058467213
15,-2.7898949038822575
16,5.553382170195505
17,0.15868293763912789
18,8.96348626261874
2,1, 1, 1, 0,21,45.00,60.00,Tuesday
7,-1.7
8,0.0
9,0.0
10,0.0
11,0.0
12,0.0
13,0.0
14,8.514198763784594
15,-3.22917992284764
16,5.532204353569341
17,0.21142648662248576
18,8.906115715312449
2,1, 1, 1, 0,22, 0.00,15.00,Tuesday
7,-1.5499999999999999
8,0.0
9,0.0
10,0.0
11,0.0
12,0.0
13,0.0
14,8.504794466649742
15,-2.756527404218897
16,5.4588114728385339
17,0.1406026629687176
18,8.854014357215093
2,1, 1, 1, 0,22,15.00,30.00,Tuesday
7,-1.4
8,0.0
9,0.0
10,0.0
11,0.0
12,0.0
13,0.0
14,8.485836651850518
15,-2.4365441088440016
16,5.427666779101514
17,0.10990560127720528
18,8.813924191436963
2,1, 1, 1, 0,22,30.00,45.00,Tuesday
7,-1.25
8,0.0
9,0.0
10,0.0
11,0.0
12,0.0
13,0.0
14,8.466401870908778
15,-2.221045572114271
16,5.430737680437119
17,0.15300013951548409
18,8.783907101584312
2,1, 1, 1, 0,22,45.00,60.00,Tuesday
7,-1.1
8,0.0
9,0.0
10,0.0
11,0.0
12,0.0
13,0.0
14,8.450472454973298
15,-1.9466485224757948
16,5.413125371063302
17,0.14975994257287085
18,8.758775372315525
2,1, 1, 1, 0,23, 0.00,15.00,Tuesday
7,-1.25
8,0.0
9,0.0
10,0.0
11,0.0
12,0.0
13,0.0
14,8.39212461954275
15,-2.249977755765813
16,5.288944028169624
17,-0.10806354057308454
18,8.727818313527067
2,1, 1, 1, 0,23,15.00,30.00,Tuesday
7,-1.4
8,0.0
9,0.0
10,0.0
11,0.0
12,0.0
13,0.0
14,8.335978796819252
15,-2.5547435754892855
16,5.156832563304192
17,-0.3772163082588804
18,8.686206529947557
2,1, 1, 1, 0,23,30.00,45.00,Tuesday
7,-1.5499999999999999
8,0.0
9,0.0
10,0.0
11,0.0
12,0.0
13,0.0
14,8.274806854967043
15,-2.8601659237598384
16,5.022801192184261
17,-0.6476023680102117
18,8.635513565608694
2,1, 1, 1, 0,23,45.00,60.00,Tuesday
7,-1.7
8,0.0
9,0.0
10,0.0
11,0.0
12,0.0
13,0.0
14,8.209637342450238
15,-3.1659316696816215
16,4.884877110657669
17,-0.91975712394742
18,8.578974516461223
2,1, 1, 1, 0,24, 0.00,15.00,Tuesday
7,-1.7
8,0.0
9,0.0
10,0.0
11,0.0
12,0.0
13,0.0
14,8.160459225405076
15,-3.2202450927164829
16,4.827075767970996
17,-0.9847823924396835
18,8.522614881393047
2,1, 1, 1, 0,24,15.00,30.00,Tuesday
7,-1.7
8,0.0
9,0.0
10,0.0
11,0.0
12,0.0
13,0.0
14,8.109331706788689
15,-3.2751023993818468
16,4.7715010347204729
17,-1.0467359939782455
18,8.469384936245593
2,1, 1, 1, 0,24,30.00,45.00,Tuesday
7,-1.7
8,0.0
9,0.0
10,0.0
11,0.0
12,0.0
13,0.0
14,8.059550474930792
15,-3.329847658881748
16,4.715853706057203
17,-1.1086397718171384
18,8.41900704902506
2,1, 1, 1, 0,24,45.00,60.00,Tuesday
7,-1.7
8,0.0
9,0.0
10,0.0
11,0.0
12,0.0
13,0.0
14,8.010723711251848
15,-3.384597491941971
16,4.661135839744247
17,-1.1702822308286614
18,8.37024138295332
End of Data
 Number of Records Written=        1152
