Program Version,EnergyPlus, Version 9.5.0-de239b2e5f, YMD=2023.02.17 15:25
1,5,Environment Title[],Latitude[deg],Longitude[deg],Time Zone[],Elevation[m]
2,8,Day of Simulation[],Month[],Day of Month[],DST Indicator[1=yes 0=no],Hour[],StartMinute[],EndMinute[],DayType
3,5,Cumulative Day of Simulation[],Month[],Day of Month[],DST Indicator[1=yes 0=no],DayType  ! When Daily Report Variables Requested
4,2,Cumulative Days of Simulation[],Month[]  ! When Monthly Report Variables Requested
5,1,Cumulative Days of Simulation[] ! When Run Period Report Variables Requested
6,1,Calendar Year of Simulation[] ! When Annual Report Variables Requested
7,1,Environment,Site Outdoor Air Drybulb Temperature [C] !TimeStep
8,1,ZONE ONE,Zone Windows Total Transmitted Solar Radiation Rate [W] !TimeStep
9,1,ZN001:WALL001,Surface Outside Face Sunlit Fraction [] !TimeStep
10,1,ZN001:WALL001,Surface Outside Face Incident Solar Radiation Rate per Area [W/m2] !TimeStep
11,1,ZN001:WALL001:WIN001,Surface Outside Face Sunlit Fraction [] !TimeStep
12,1,ZN001:WALL001:WIN001,Surface Outside Face Incident Solar Radiation Rate per Area [W/m2] !TimeStep
13,1,ZN001:WALL001:WIN001,Surface Window Transmitted Solar Radiation Rate [W] !TimeStep
14,1,ZN001:WALL001,Surface Inside Face Temperature [C] !TimeStep
15,1,ZN001:WALL001,Surface Outside Face Temperature [C] !TimeStep
16,1,ZN001:WALL001:WIN001,Surface Inside Face Temperature [C] !TimeStep
17,1,ZN001:WALL001:WIN001,Surface Outside Face Temperature [C] !TimeStep
18,1,ZONE ONE,Zone Mean Air Temperature [C] !TimeStep
End of Data Dictionary
1,RUN PERIOD 1,  41.98, -87.92,  -6.00, 201.00
2,1, 1, 1, 0, 1, 0.00,15.00,Tuesday
7,-4.324999999999999
8,0.0
9,0.0
10,0.0
11,0.0
12,0.0
13,0.0
14,7.680346151842515
15,-5.8641650734307879
16,3.65965858095592
17,-3.0113689932035188
18,8.161524111728629
2,1, 1, 1, 0, 1,15.00,30.00,Tuesday
7,-6.949999999999999
8,0.0
9,0.0
10,0.0
11,0.0
12,0.0
13,0.0
14,7.486903544261753
15,-8.331409427754103
16,2.8341905297681935
17,-4.9260238260855548
18,8.046081510500543
2,1, 1, 1, 0, 1,30.00,45.00,Tuesday
7,-9.575
8,0.0
9,0.0
10,0.0
11,0.0
12,0.0
13,0.0
14,7.270859557052449
15,-10.806713180675809
16,2.001150460298618
17,-6.846658379629162
18,7.895923119940722
2,1, 1, 1, 0, 1,45.00,60.00,Tuesday
7,-12.2
8,0.0
9,0.0
10,0.0
11,0.0
12,0.0
13,0.0
14,7.037293504297164
15,-13.288666052213243
16,1.1528086795900663
17,-8.775623945416954
18,7.722329363705536
2,1, 1, 1, 0, 2, 0.00,15.00,Tuesday
7,-12.075
8,0.0
9,0.0
10,0.0
11,0.0
12,0.0
13,0.0
14,6.953862269150746
15,-13.089582125537295
16,1.1140338863449984
17,-8.637293205953143
18,7.567470478473089
2,1, 1, 1, 0, 2,15.00,30.00,Tuesday
7,-11.95
8,0.0
9,0.0
10,0.0
11,0.0
12,0.0
13,0.0
14,6.857969035418905
15,-12.912767955141153
16,1.0959909920678115
17,-8.529181198741924
18,7.449082194700461
2,1, 1, 1, 0, 2,30.00,45.00,Tuesday
7,-11.825
8,0.0
9,0.0
10,0.0
11,0.0
12,0.0
13,0.0
14,6.781347792020956
15,-12.734729863810001
16,1.0814827275281687
17,-8.41070331798852
18,7.3599041660707809
2,1, 1, 1, 0, 2,45.00,60.00,Tuesday
7,-11.7
8,0.0
9,0.0
10,0.0
11,0.0
12,0.0
13,0.0
14,6.716944970635004
15,-12.556787270882812
16,1.0790998926785279
17,-8.286768298920038
18,7.287117522094445
2,1, 1, 1, 0, 3, 0.00,15.00,Tuesday
7,-11.549999999999999
8,0.0
9,0.0
10,0.0
11,0.0
12,0.0
13,0.0
14,6.654712540765447
15,-12.429825796289446
16,1.0890395400133457
17,-8.12796306568299
18,7.221015336328949
2,1, 1, 1, 0, 3,15.00,30.00,Tuesday
7,-11.399999999999999
8,0.0
9,0.0
10,0.0
11,0.0
12,0.0
13,0.0
14,6.5958514433168509
15,-12.304199182073596
16,1.1094463174321164
17,-7.988628057879055
18,7.157229104980603
2,1, 1, 1, 0, 3,30.00,45.00,Tuesday
7,-11.25
8,0.0
9,0.0
10,0.0
11,0.0
12,0.0
13,0.0
14,6.537912012050275
15,-12.180045510291548
16,1.1281240509199507
17,-7.8401075652018339
18,7.094569426214577
2,1, 1, 1, 0, 3,45.00,60.00,Tuesday
7,-11.1
8,0.0
9,0.0
10,0.0
11,0.0
12,0.0
13,0.0
14,6.480547325830668
15,-12.057421991259233
16,1.1413342921238155
17,-7.680501853594819
18,7.032804031665682
2,1, 1, 1, 0, 4, 0.00,15.00,Tuesday
7,-11.1
8,0.0
9,0.0
10,0.0
11,0.0
12,0.0
13,0.0
14,6.419001300229311
15,-12.03050579228803
16,1.0697241152380457
17,-7.744525789149236
18,6.970442543315526
2,1, 1, 1, 0, 4,15.00,30.00,Tuesday
7,-11.1
8,0.0
9,0.0
10,0.0
11,0.0
12,0.0
13,0.0
14,6.357743136156869
15,-12.004636079683899
16,1.0044088596246184
17,-7.807239700972673
18,6.9070100544765709
2,1, 1, 1, 0, 4,30.00,45.00,Tuesday
7,-11.1
8,0.0
9,0.0
10,0.0
11,0.0
12,0.0
13,0.0
14,6.296047185649278
15,-11.980233418636484
16,0.9397393932383693
17,-7.869087939155406
18,6.842835718187101
2,1, 1, 1, 0, 4,45.00,60.00,Tuesday
7,-11.1
8,0.0
9,0.0
10,0.0
11,0.0
12,0.0
13,0.0
14,6.234129245507817
15,-11.95716321225197
16,0.8753929957113655
17,-7.929724894443098
18,6.778374202827807
2,1, 1, 1, 0, 5, 0.00,15.00,Tuesday
7,-10.975
8,0.0
9,0.0
10,0.0
11,0.0
12,0.0
13,0.0
14,6.178116618782124
15,-11.835443853479453
16,0.8722738241879711
17,-7.8593148111425539
18,6.715365099955867
2,1, 1, 1, 0, 5,15.00,30.00,Tuesday
7,-10.85
8,0.0
9,0.0
10,0.0
11,0.0
12,0.0
13,0.0
14,6.122455212523003
15,-11.713775153941662
16,0.8653484895928614
17,-7.781087193381381
18,6.6544315046626629
2,1, 1, 1, 0, 5,30.00,45.00,Tuesday
7,-10.725
8,0.0
9,0.0
10,0.0
11,0.0
12,0.0
13,0.0
14,6.068074943674081
15,-11.59207735610729
16,0.8584994620075577
17,-7.701646806995143
18,6.595220551501551
2,1, 1, 1, 0, 5,45.00,60.00,Tuesday
7,-10.6
8,0.0
9,0.0
10,0.0
11,0.0
12,0.0
13,0.0
14,6.01473742543075
15,-11.470387573266473
16,0.8525012813619242
17,-7.621764707091131
18,6.537205944160504
2,1, 1, 1, 0, 6, 0.00,15.00,Tuesday
7,-10.6
8,0.0
9,0.0
10,0.0
11,0.0
12,0.0
13,0.0
14,5.9544588788468248
15,-11.471550673552036
16,0.8056811601484242
17,-7.630257819861072
18,6.4785073756318349
2,1, 1, 1, 0, 6,15.00,30.00,Tuesday
7,-10.6
8,0.0
9,0.0
10,0.0
11,0.0
12,0.0
13,0.0
14,5.8948414975050149
15,-11.472670723889753
16,0.7608114833807349
17,-7.644314810215064
18,6.418354873568067
2,1, 1, 1, 0, 6,30.00,45.00,Tuesday
7,-10.6
8,0.0
9,0.0
10,0.0
11,0.0
12,0.0
13,0.0
14,5.834657485151489
15,-11.473834369934485
16,0.7162741495551472
17,-7.659036385945342
18,6.357105084092512
2,1, 1, 1, 0, 6,45.00,60.00,Tuesday
7,-10.6
8,0.0
9,0.0
10,0.0
11,0.0
12,0.0
13,0.0
14,5.774172131078972
15,-11.474994451446806
16,0.6714314494763016
17,-7.673980508702925
18,6.295353443939092
2,1, 1, 1, 0, 7, 0.00,15.00,Tuesday
7,-10.6
8,0.0
9,0.0
10,0.0
11,0.0
12,0.0
13,0.0
14,5.715473700175575
15,-11.452694700619866
16,0.6084510508608219
17,-7.727189333353522
18,6.233625436333148
2,1, 1, 1, 0, 7,15.00,30.00,Tuesday
7,-10.6
8,0.0
9,0.0
10,0.0
11,0.0
12,0.0
13,0.0
14,5.656654778612036
15,-11.431557241649735
16,0.5483865318689141
17,-7.7809805488501528
18,6.172229295965033
2,1, 1, 1, 0, 7,30.00,45.00,Tuesday
7,-10.6
8,0.0
9,0.0
10,0.0
11,0.0
12,0.0
13,0.0
14,5.598079965499149
15,-11.411498557478695
16,0.48916281755236926
17,-7.8337718166502559
18,6.111201943799116
2,1, 1, 1, 0, 7,45.00,60.00,Tuesday
7,-10.6
8,0.0
9,0.0
10,0.0
11,0.0
12,0.0
13,0.0
14,5.53977986454386
15,-11.392453278612532
16,0.4306800290070214
17,-7.885260875564882
18,6.050495736595119
2,1, 1, 1, 0, 8, 0.00,15.00,Tuesday
7,-10.45
8,0.0
9,0.0
10,0.0
11,0.0
12,0.0
13,0.0
14,5.481383626692246
15,-11.342782856914003
16,0.42466274195618328
17,-7.825858103886048
18,5.990258130931857
2,1, 1, 1, 0, 8,15.00,30.00,Tuesday
7,-10.3
8,215.5879980222353
9,1.0
10,22.819555959623899
11,1.0
12,22.819555959623899
13,215.5879980222353
14,5.556175572340658
15,-9.668659892499355
16,0.7093144730214362
17,-7.495168622882829
18,5.951401321407087
2,1, 1, 1, 0, 8,30.00,45.00,Tuesday
7,-10.15
8,1058.5392312119832
9,1.0
10,109.75755355442667
11,1.0
12,109.75755355442667
13,1058.5392312119832
14,5.997007554564046
15,-3.292988373513133
16,1.8788004995178654
17,-6.419226037659655
18,5.99224534403661
2,1, 1, 1, 0, 8,45.00,60.00,Tuesday
7,-10.0
8,1924.8399544048012
9,1.0
10,195.8764694434918
11,1.0
12,195.8764694434918
13,1924.8399544048012
14,6.597468807407796
15,3.2166456954592945
16,3.136396832352375
17,-5.326645965140642
18,6.118616049797842
2,1, 1, 1, 0, 9, 0.00,15.00,Tuesday
7,-9.725
8,2788.1568045040946
9,1.0
10,278.97248314719988
11,1.0
12,278.97248314719988
13,2788.1568045040946
14,7.016017336080853
15,8.354840010058961
16,4.363782412223145
17,-4.374828750965662
18,6.308808090829718
2,1, 1, 1, 0, 9,15.00,30.00,Tuesday
7,-9.45
8,3698.191694964431
9,1.0
10,364.91995730569456
11,1.0
12,364.91995730569456
13,3698.191694964431
14,7.51116528959246
15,13.43905290549391
16,5.672879299074168
17,-3.401459042992542
18,6.552974365280895
2,1, 1, 1, 0, 9,30.00,45.00,Tuesday
7,-9.175
8,4300.2673206835229
9,1.0
10,420.35879993239237
11,1.0
12,420.35879993239237
13,4300.2673206835229
14,7.870839705649373
15,16.195017287232444
16,6.615097736282962
17,-2.7672061698874019
18,6.824256075388889
2,1, 1, 1, 0, 9,45.00,60.00,Tuesday
7,-8.9
8,4925.271017558337
9,1.0
10,478.00138373643099
11,1.0
12,478.00138373643099
13,4925.271017558337
14,8.28948926496846
15,19.189779657403706
16,7.556768284770101
17,-2.123926240915239
18,7.108046487358877
2,1, 1, 1, 0,10, 0.00,15.00,Tuesday
7,-8.350000000000002
8,5563.47927965646
9,1.0
10,536.9185644770597
11,1.0
12,536.9185644770597
13,5563.47927965646
14,8.656821968470326
15,20.304677579974166
16,8.488922413893875
17,-1.5028226414326583
18,7.405022782636911
2,1, 1, 1, 0,10,15.00,30.00,Tuesday
7,-7.800000000000001
8,6223.735720388039
9,1.0
10,598.0969199229219
11,1.0
12,598.0969199229219
13,6223.735720388039
14,9.055629199950334
15,21.555656161554017
16,9.430947285310936
17,-0.8769577412722356
18,7.544876094470187
2,1, 1, 1, 0,10,30.00,45.00,Tuesday
7,-7.25
8,6656.871608685562
9,1.0
10,637.6133352894237
11,1.0
12,637.6133352894237
13,6656.871608685562
14,9.328407846051912
15,21.61222884625632
16,10.095565449042738
17,-0.45070352133495819
18,7.815268771309878
2,1, 1, 1, 0,10,45.00,60.00,Tuesday
7,-6.7
8,7083.627635407371
9,1.0
10,676.6412284283772
11,1.0
12,676.6412284283772
13,7083.627635407371
14,9.593295079382079
15,21.769733081001534
16,10.709788575043945
17,-0.030974121982126236
18,8.016415989155064
2,1, 1, 1, 0,11, 0.00,15.00,Tuesday
7,-6.275
8,7502.619881932496
9,1.0
10,715.0112779846514
11,1.0
12,715.0112779846514
13,7502.619881932496
14,10.013468505682388
15,23.869416199363376
16,11.442617706873705
17,0.639952791186488
18,8.479443983307594
2,1, 1, 1, 0,11,15.00,30.00,Tuesday
7,-5.85
8,7911.749570952164
9,1.0
10,752.5077794605232
11,1.0
12,752.5077794605232
13,7911.749570952164
14,10.486564784533196
15,25.80678036856726
16,12.211393877404817
17,1.321643763853558
18,8.912204506195377
2,1, 1, 1, 0,11,30.00,45.00,Tuesday
7,-5.425
8,7790.156876744835
9,1.0
10,742.5988714321785
11,1.0
12,742.5988714321785
13,7790.156876744835
14,10.77729804124325
15,25.658894293862458
16,12.471416775422768
17,1.64035590387914
18,9.316911281818939
2,1, 1, 1, 0,11,45.00,60.00,Tuesday
7,-5.0
8,7616.415097398768
9,1.0
10,727.8169025450712
11,1.0
12,727.8169025450712
13,7616.415097398768
14,11.05557495308273
15,25.430828834009014
16,12.641915008449815
17,1.9105482402030703
18,9.676455868668937
2,1, 1, 1, 0,12, 0.00,15.00,Tuesday
7,-4.575
8,7317.63187899619
9,1.0
10,700.3759009170325
11,1.0
12,700.3759009170325
13,7317.63187899619
14,11.256251070112662
15,24.689012684982516
16,12.67449158839446
17,2.1192502645962465
18,9.986417144289675
2,1, 1, 1, 0,12,15.00,30.00,Tuesday
7,-4.15
8,7096.045470548525
9,1.0
10,681.6705029034473
11,1.0
12,681.6705029034473
13,7096.045470548525
14,11.477106853958457
15,24.359381147901844
16,12.77824657383411
17,2.3936872054470657
18,10.259353152216028
2,1, 1, 1, 0,12,30.00,45.00,Tuesday
7,-3.7249999999999998
8,6229.736928425406
9,1.0
10,602.01865277251
11,1.0
12,602.01865277251
13,6229.736928425406
14,11.3906242141331
15,21.33072062507125
16,12.193949674625174
17,2.1985150441274756
18,10.470200088356214
2,1, 1, 1, 0,12,45.00,60.00,Tuesday
7,-3.3
8,5087.904404183855
9,1.0
10,493.55004396206007
11,1.0
12,493.55004396206007
13,5087.904404183855
14,11.197393084953843
15,17.153680559913096
16,11.164031457759961
17,1.7411467169716844
18,10.586658587934096
2,1, 1, 1, 0,13, 0.00,15.00,Tuesday
7,-3.0249999999999996
8,4201.063393949559
9,1.0
10,412.335026418112
11,1.0
12,412.335026418112
13,4201.063393949559
14,11.065090885883333
15,14.310408636986136
16,10.31794512467286
17,1.431117815107882
18,10.628521603771695
2,1, 1, 1, 0,13,15.00,30.00,Tuesday
7,-2.75
8,3076.892122430221
9,1.0
10,305.94037763660148
11,1.0
12,305.94037763660148
13,3076.892122430221
14,10.735481567954562
15,10.138179466555999
16,9.200909643038643
17,0.912116152218573
18,10.604083123106602
2,1, 1, 1, 0,13,30.00,45.00,Tuesday
7,-2.475
8,2809.0935899127655
9,1.0
10,281.0763483922329
11,1.0
12,281.0763483922329
13,2809.0935899127655
14,10.71492609902494
15,9.627205740195809
16,8.989711609146866
17,1.0265102924887515
18,10.55626076916827
2,1, 1, 1, 0,13,45.00,60.00,Tuesday
7,-2.2
8,2546.8736709552365
9,1.0
10,256.7721209415886
11,1.0
12,256.7721209415886
13,2546.8736709552365
14,10.673483238759899
15,9.020483696736886
16,8.851334768756488
17,1.1691597118946789
18,10.515016016644836
2,1, 1, 1, 0,14, 0.00,15.00,Tuesday
7,-1.9250000000000003
8,2080.536760270814
9,1.0
10,210.73276284570657
11,1.0
12,210.73276284570657
13,2080.536760270814
14,10.514193837779864
15,7.474562613516831
16,8.440969020905812
17,1.1109181556274735
18,10.474366785253727
2,1, 1, 1, 0,14,15.00,30.00,Tuesday
7,-1.6500000000000002
8,1848.1882299855229
9,1.0
10,189.38488290342594
11,1.0
12,189.38488290342594
13,1848.1882299855229
14,10.473496945464646
15,7.070256161380598
16,8.283646295672952
17,1.2429452929180798
18,10.435309511544118
2,1, 1, 1, 0,14,30.00,45.00,Tuesday
7,-1.375
8,1762.648528253172
9,1.0
10,179.3940297802914
11,1.0
12,179.3940297802914
13,1762.648528253172
14,10.45794847872267
15,7.194723886490342
16,8.28910396548281
17,1.4792353047274674
18,10.401188610827337
2,1, 1, 1, 0,14,45.00,60.00,Tuesday
7,-1.1
8,1676.1315823352277
9,1.0
10,169.43349014176136
11,1.0
12,169.43349014176136
13,1676.1315823352277
14,10.438538644952275
15,7.295186132566044
16,8.287880847806946
17,1.7124626912899999
18,10.371895891695447
2,1, 1, 1, 0,15, 0.00,15.00,Tuesday
7,-1.1
8,1764.2336451764168
9,1.0
10,178.15692317953907
11,1.0
12,178.15692317953907
13,1764.2336451764168
14,10.50307302747457
15,8.113713760654744
16,8.409531244563198
17,1.8615220540303313
18,10.352183730509623
2,1, 1, 1, 0,15,15.00,30.00,Tuesday
7,-1.1
8,1657.44905719483
9,1.0
10,166.40516310952945
11,1.0
12,166.40516310952945
13,1657.44905719483
14,10.443529167542533
15,7.752724184976455
16,8.305859343843622
17,1.8300426132434496
18,10.334647873398714
2,1, 1, 1, 0,15,30.00,45.00,Tuesday
7,-1.1
8,1397.5312645024297
9,1.0
10,140.8967369711617
11,1.0
12,140.8967369711617
13,1397.5312645024297
14,10.312595914290558
15,6.547971054197558
16,7.994366267687951
17,1.6434213523943413
18,10.308201552954822
2,1, 1, 1, 0,15,45.00,60.00,Tuesday
7,-1.1
8,1150.0543343484979
9,1.0
10,116.57355796743004
11,1.0
12,116.57355796743004
13,1150.0543343484979
14,10.164154026337423
15,5.334302221588074
16,7.677577966369881
17,1.4505231392638507
18,10.267284750794886
2,1, 1, 1, 0,16, 0.00,15.00,Tuesday
7,-1.1
8,912.7487358563033
9,1.0
10,93.14939272689483
11,1.0
12,93.14939272689483
13,912.7487358563033
14,10.049898138512344
15,4.29348856023795
16,7.40708176873602
17,1.3480155900254545
18,10.208643852143707
2,1, 1, 1, 0,16,15.00,30.00,Tuesday
7,-1.1
8,566.636069103818
9,1.0
10,57.94047897402063
11,1.0
12,57.94047897402063
13,566.636069103818
14,9.83091844654321
15,2.172188263985684
16,6.975863400913738
17,1.108801959280413
18,10.123979779560738
2,1, 1, 1, 0,16,30.00,45.00,Tuesday
7,-1.1
8,439.3280485110057
9,1.0
10,45.38251793443488
11,1.0
12,45.38251793443488
13,439.3280485110057
14,9.747086643326238
15,1.567138547074878
16,6.802684057125248
17,1.1032244051439193
18,10.026691827581443
2,1, 1, 1, 0,16,45.00,60.00,Tuesday
7,-1.1
8,306.6800834820858
9,1.0
10,32.02625108222755
11,1.0
12,32.02625108222755
13,306.6800834820858
14,9.61996993958
15,0.7089538085035732
16,6.643948242484953
17,1.0977598748692117
18,9.9298083950959
2,1, 1, 1, 0,17, 0.00,15.00,Tuesday
7,-1.1
8,168.21359625367695
9,1.0
10,17.762198626050539
11,1.0
12,17.762198626050539
13,168.21359625367695
14,9.46785630888724
15,-0.5351005629401892
16,6.421704938237667
17,0.9893113503384257
18,9.831860967637813
2,1, 1, 1, 0,17,15.00,30.00,Tuesday
7,-1.1
8,0.0
9,0.0
10,0.0
11,0.0
12,0.0
13,0.0
14,9.263203989345796
15,-2.3690969399182388
16,6.098040729518175
17,0.726709947373763
18,9.719275740403392
2,1, 1, 1, 0,17,30.00,45.00,Tuesday
7,-1.1
8,0.0
9,0.0
10,0.0
11,0.0
12,0.0
13,0.0
14,9.199948798810949
15,-2.5013807648658008
16,6.046399210883578
17,0.7858173565165885
18,9.608908591378136
2,1, 1, 1, 0,17,45.00,60.00,Tuesday
7,-1.1
8,0.0
9,0.0
10,0.0
11,0.0
12,0.0
13,0.0
14,9.119195223240452
15,-2.6865169551781657
16,6.025904278576661
17,0.856950244408381
18,9.515900363400677
2,1, 1, 1, 0,18, 0.00,15.00,Tuesday
7,-1.25
8,0.0
9,0.0
10,0.0
11,0.0
12,0.0
13,0.0
14,9.049688148335436
15,-2.835168599303154
16,5.916788070198777
17,0.7248222657690349
18,9.440046806170061
2,1, 1, 1, 0,18,15.00,30.00,Tuesday
7,-1.4
8,0.0
9,0.0
10,0.0
11,0.0
12,0.0
13,0.0
14,8.98574218948577
15,-2.987729590957053
16,5.825478308247625
17,0.5989522385909254
18,9.375318203834456
2,1, 1, 1, 0,18,30.00,45.00,Tuesday
7,-1.5499999999999999
8,0.0
9,0.0
10,0.0
11,0.0
12,0.0
13,0.0
14,8.925771826442812
15,-3.1399295385632977
16,5.7387413631490749
17,0.47393668978253347
18,9.316169205037424
2,1, 1, 1, 0,18,45.00,60.00,Tuesday
7,-1.7
8,0.0
9,0.0
10,0.0
11,0.0
12,0.0
13,0.0
14,8.867510549169396
15,-3.292302719880545
16,5.654531164699847
17,0.34971643882494166
18,9.259405051187779
2,1, 1, 1, 0,19, 0.00,15.00,Tuesday
7,-1.825
8,0.0
9,0.0
10,0.0
11,0.0
12,0.0
13,0.0
14,8.831464047311194
15,-3.154309158786246
16,5.521585535018971
17,0.11898576007070005
18,9.206421215379649
2,1, 1, 1, 0,19,15.00,30.00,Tuesday
7,-1.9500000000000002
8,0.0
9,0.0
10,0.0
11,0.0
12,0.0
13,0.0
14,8.79479390242689
15,-3.0965045139648459
16,5.405764102721662
17,-0.10098009046862444
18,9.159008103064496
2,1, 1, 1, 0,19,30.00,45.00,Tuesday
7,-2.075
8,0.0
9,0.0
10,0.0
11,0.0
12,0.0
13,0.0
14,8.753905552241868
15,-3.17286301781703
16,5.333305857703408
17,-0.2350720645652018
18,9.116437672375673
2,1, 1, 1, 0,19,45.00,60.00,Tuesday
7,-2.2
8,0.0
9,0.0
10,0.0
11,0.0
12,0.0
13,0.0
14,8.715115798761122
15,-3.158492439280827
16,5.220057999962876
17,-0.44588357693055516
18,9.075602555132612
2,1, 1, 1, 0,20, 0.00,15.00,Tuesday
7,-1.9250000000000003
8,0.0
9,0.0
10,0.0
11,0.0
12,0.0
13,0.0
14,8.694157663271956
15,-2.8593221333285498
16,5.2814326967372839
17,-0.29243211079614186
18,9.038256904343007
2,1, 1, 1, 0,20,15.00,30.00,Tuesday
7,-1.6500000000000002
8,0.0
9,0.0
10,0.0
11,0.0
12,0.0
13,0.0
14,8.672734662828747
15,-2.5629708479741795
16,5.332690451760982
17,-0.11966773085077875
18,9.005225761149355
2,1, 1, 1, 0,20,30.00,45.00,Tuesday
7,-1.375
8,0.0
9,0.0
10,0.0
11,0.0
12,0.0
13,0.0
14,8.653564798732008
15,-2.267758034236031
16,5.378923485835685
17,0.06852035334662787
18,8.975683841694102
2,1, 1, 1, 0,20,45.00,60.00,Tuesday
7,-1.1
8,0.0
9,0.0
10,0.0
11,0.0
12,0.0
13,0.0
14,8.636406527427465
15,-1.9737341340786916
16,5.4380174185390619
17,0.24070939350730215
18,8.948690103411423
2,1, 1, 1, 0,21, 0.00,15.00,Tuesday
7,-1.25
8,0.0
9,0.0
10,0.0
11,0.0
12,0.0
13,0.0
14,8.579988746341247
15,-2.24705837350775
16,5.419870016087771
17,0.24986753685664099
18,8.91738052265498
2,1, 1, 1, 0,21,15.00,30.00,Tuesday
7,-1.4
8,0.0
9,0.0
10,0.0
11,0.0
12,0.0
13,0.0
14,8.524226707054928
15,-2.459464939058103
16,5.36377317139295
17,0.20357691470837836
18,8.876772808111657
2,1, 1, 1, 0,21,30.00,45.00,Tuesday
7,-1.5499999999999999
8,0.0
9,0.0
10,0.0
11,0.0
12,0.0
13,0.0
14,8.456143556869363
15,-2.7933818397271854
16,5.349924331148259
17,0.22003099524340542
18,8.826627942905784
2,1, 1, 1, 0,21,45.00,60.00,Tuesday
7,-1.7
8,0.0
9,0.0
10,0.0
11,0.0
12,0.0
13,0.0
14,8.38283940780828
15,-3.23326168020292
16,5.331210113585087
17,0.2752941864501395
18,8.769474601272585
2,1, 1, 1, 0,22, 0.00,15.00,Tuesday
7,-1.5499999999999999
8,0.0
9,0.0
10,0.0
11,0.0
12,0.0
13,0.0
14,8.37367998730848
15,-2.7599188161660037
16,5.255868554776725
17,0.20121464050197347
18,8.71754255591964
2,1, 1, 1, 0,22,15.00,30.00,Tuesday
7,-1.4
8,0.0
9,0.0
10,0.0
11,0.0
12,0.0
13,0.0
14,8.354941255985768
15,-2.4394801901153424
16,5.223272181504967
17,0.1669152125995197
18,8.677557746092714
2,1, 1, 1, 0,22,30.00,45.00,Tuesday
7,-1.25
8,0.0
9,0.0
10,0.0
11,0.0
12,0.0
13,0.0
14,8.335693509952139
15,-2.223780936594833
16,5.226816469097798
17,0.20752431685360762
18,8.64762968884056
2,1, 1, 1, 0,22,45.00,60.00,Tuesday
7,-1.1
8,0.0
9,0.0
10,0.0
11,0.0
12,0.0
13,0.0
14,8.319912702732502
15,-1.949016651254507
16,5.2079008358036849
17,0.20108263072495448
18,8.622581869288622
2,1, 1, 1, 0,23, 0.00,15.00,Tuesday
7,-1.25
8,0.0
9,0.0
10,0.0
11,0.0
12,0.0
13,0.0
14,8.261559832119211
15,-2.252361537070562
16,5.080885527084547
17,-0.055167649898749008
18,8.591681145543705
2,1, 1, 1, 0,23,15.00,30.00,Tuesday
7,-1.4
8,0.0
9,0.0
10,0.0
11,0.0
12,0.0
13,0.0
14,8.205408407496896
15,-2.557130174842954
16,4.946058895529859
17,-0.32198554657060188
18,8.550087683914852
2,1, 1, 1, 0,23,30.00,45.00,Tuesday
7,-1.5499999999999999
8,0.0
9,0.0
10,0.0
11,0.0
12,0.0
13,0.0
14,8.144223032136445
15,-2.8625559138880627
16,4.8093108912730149
17,-0.5900206935637016
18,8.49937682791257
2,1, 1, 1, 0,23,45.00,60.00,Tuesday
7,-1.7
8,0.0
9,0.0
10,0.0
11,0.0
12,0.0
13,0.0
14,8.079028777946407
15,-3.1683249756677145
16,4.668706506698641
17,-0.8598404470548076
18,8.442792129671416
2,1, 1, 1, 0,24, 0.00,15.00,Tuesday
7,-1.7
8,0.0
9,0.0
10,0.0
11,0.0
12,0.0
13,0.0
14,8.029895232163887
15,-3.222634126928768
16,4.611031447187997
17,-0.9246835971700307
18,8.386405534730925
2,1, 1, 1, 0,24,15.00,30.00,Tuesday
7,-1.7
8,0.0
9,0.0
10,0.0
11,0.0
12,0.0
13,0.0
14,7.978811147430158
15,-3.2774908173188086
16,4.555381840786367
17,-0.9864507308184329
18,8.333184078076492
2,1, 1, 1, 0,24,30.00,45.00,Tuesday
7,-1.7
8,0.0
9,0.0
10,0.0
11,0.0
12,0.0
13,0.0
14,7.929084352160134
15,-3.3322348488349866
16,4.499658900289035
17,-1.0481465023428883
18,8.282844074416378
2,1, 1, 1, 0,24,45.00,60.00,Tuesday
7,-1.7
8,0.0
9,0.0
10,0.0
11,0.0
12,0.0
13,0.0
14,7.880320272622245
15,-3.3869833978513448
16,4.44486167103355
17,-1.1095582130503772
18,8.234133643814923
End of Data
 Number of Records Written=        1152
