Program Version,EnergyPlus, Version 9.5.0-de239b2e5f, YMD=2023.02.17 15:24
1,5,Environment Title[],Latitude[deg],Longitude[deg],Time Zone[],Elevation[m]
2,8,Day of Simulation[],Month[],Day of Month[],DST Indicator[1=yes 0=no],Hour[],StartMinute[],EndMinute[],DayType
3,5,Cumulative Day of Simulation[],Month[],Day of Month[],DST Indicator[1=yes 0=no],DayType  ! When Daily Report Variables Requested
4,2,Cumulative Days of Simulation[],Month[]  ! When Monthly Report Variables Requested
5,1,Cumulative Days of Simulation[] ! When Run Period Report Variables Requested
6,1,Calendar Year of Simulation[] ! When Annual Report Variables Requested
7,1,Environment,Site Outdoor Air Drybulb Temperature [C] !TimeStep
8,1,ZONE ONE,Zone Windows Total Transmitted Solar Radiation Rate [W] !TimeStep
9,1,ZN001:WALL001,Surface Outside Face Sunlit Fraction [] !TimeStep
10,1,ZN001:WALL001,Surface Outside Face Incident Solar Radiation Rate per Area [W/m2] !TimeStep
11,1,ZN001:WALL001:WIN001,Surface Outside Face Sunlit Fraction [] !TimeStep
12,1,ZN001:WALL001:WIN001,Surface Outside Face Incident Solar Radiation Rate per Area [W/m2] !TimeStep
13,1,ZN001:WALL001:WIN001,Surface Window Transmitted Solar Radiation Rate [W] !TimeStep
14,1,ZN001:WALL001,Surface Inside Face Temperature [C] !TimeStep
15,1,ZN001:WALL001,Surface Outside Face Temperature [C] !TimeStep
16,1,ZN001:WALL001:WIN001,Surface Inside Face Temperature [C] !TimeStep
17,1,ZN001:WALL001:WIN001,Surface Outside Face Temperature [C] !TimeStep
18,1,ZONE ONE,Zone Mean Air Temperature [C] !TimeStep
End of Data Dictionary
1,RUN PERIOD 1,  41.98, -87.92,  -6.00, 201.00
2,1, 1, 1, 0, 1, 0.00,15.00,Tuesday
7,-4.324999999999999
8,0.0
9,0.0
10,0.0
11,0.0
12,0.0
13,0.0
14,9.293457600975021
15,-5.834793031504456
16,6.592256544545819
17,-3.9607692700940335
18,9.838628728337934
2,1, 1, 1, 0, 1,15.00,30.00,Tuesday
7,-6.949999999999999
8,0.0
9,0.0
10,0.0
11,0.0
12,0.0
13,0.0
14,9.106498526112949
15,-8.30158266445318
16,6.020785282210568
17,-6.069579746501063
18,9.73114908894893
2,1, 1, 1, 0, 1,30.00,45.00,Tuesday
7,-9.575
8,0.0
9,0.0
10,0.0
11,0.0
12,0.0
13,0.0
14,8.899504125715854
15,-10.7762709727482
16,5.441934507726728
17,-8.18448034604296
18,9.593109923361565
2,1, 1, 1, 0, 1,45.00,60.00,Tuesday
7,-12.2
8,0.0
9,0.0
10,0.0
11,0.0
12,0.0
13,0.0
14,8.676906698757595
15,-13.257609663568316
16,4.8476804219214959
17,-10.306748666412716
18,9.434296019273221
2,1, 1, 1, 0, 2, 0.00,15.00,Tuesday
7,-12.075
8,0.0
9,0.0
10,0.0
11,0.0
12,0.0
13,0.0
14,8.59882536546121
15,-13.058099101586955
16,4.766927903152123
17,-10.140667128113308
18,9.291049985915257
2,1, 1, 1, 0, 2,15.00,30.00,Tuesday
7,-11.95
8,0.0
9,0.0
10,0.0
11,0.0
12,0.0
13,0.0
14,8.507996421055769
15,-12.88123133767493
16,4.721031112790229
17,-9.995314506976172
18,9.179467370000083
2,1, 1, 1, 0, 2,30.00,45.00,Tuesday
7,-11.825
8,0.0
9,0.0
10,0.0
11,0.0
12,0.0
13,0.0
14,8.434195925751004
15,-12.703238207336917
16,4.680989818442072
17,-9.849563760622346
18,9.09355723699869
2,1, 1, 1, 0, 2,45.00,60.00,Tuesday
7,-11.7
8,0.0
9,0.0
10,0.0
11,0.0
12,0.0
13,0.0
14,8.371252416697932
15,-12.52533898487034
16,4.653579862824927
17,-9.701391703386435
18,9.022207262085792
2,1, 1, 1, 0, 3, 0.00,15.00,Tuesday
7,-11.549999999999999
8,0.0
9,0.0
10,0.0
11,0.0
12,0.0
13,0.0
14,8.309884496168355
15,-12.397522965732462
16,4.6345340221676
17,-9.548375982335415
18,8.956729467908245
2,1, 1, 1, 0, 3,15.00,30.00,Tuesday
7,-11.399999999999999
8,0.0
9,0.0
10,0.0
11,0.0
12,0.0
13,0.0
14,8.251434569165788
15,-12.2709986698182
16,4.617175916194242
17,-9.395081881620854
18,8.893047788275628
2,1, 1, 1, 0, 3,30.00,45.00,Tuesday
7,-11.25
8,0.0
9,0.0
10,0.0
11,0.0
12,0.0
13,0.0
14,8.19371180609976
15,-12.145904968266544
16,4.601460216065107
17,-9.241476066993642
18,8.830127793219209
2,1, 1, 1, 0, 3,45.00,60.00,Tuesday
7,-11.1
8,0.0
9,0.0
10,0.0
11,0.0
12,0.0
13,0.0
14,8.1364485077553
15,-12.022295032036896
16,4.5863519049472079
17,-9.087796028443563
18,8.767941702076289
2,1, 1, 1, 0, 4, 0.00,15.00,Tuesday
7,-11.1
8,0.0
9,0.0
10,0.0
11,0.0
12,0.0
13,0.0
14,8.075380072643667
15,-11.99637815824493
16,4.523211027152001
17,-9.132585490929842
18,8.705635208744346
2,1, 1, 1, 0, 4,15.00,30.00,Tuesday
7,-11.1
8,0.0
9,0.0
10,0.0
11,0.0
12,0.0
13,0.0
14,8.01472853110058
15,-11.971451259402837
16,4.463145986734105
17,-9.17579986045422
18,8.642859808912493
2,1, 1, 1, 0, 4,30.00,45.00,Tuesday
7,-11.1
8,0.0
9,0.0
10,0.0
11,0.0
12,0.0
13,0.0
14,7.9538963451881889
15,-11.947939077058792
16,4.403439358670994
17,-9.217870361328949
18,8.579753790168028
2,1, 1, 1, 0, 4,45.00,60.00,Tuesday
7,-11.1
8,0.0
9,0.0
10,0.0
11,0.0
12,0.0
13,0.0
14,7.893004561603631
15,-11.925715137433489
16,4.343936005040746
17,-9.25875281603669
18,8.516560175003063
2,1, 1, 1, 0, 5, 0.00,15.00,Tuesday
7,-10.975
8,0.0
9,0.0
10,0.0
11,0.0
12,0.0
13,0.0
14,7.837663652014846
15,-11.80400278127659
16,4.319922863471447
17,-9.172651303635348
18,8.454519786209892
2,1, 1, 1, 0, 5,15.00,30.00,Tuesday
7,-10.85
8,0.0
9,0.0
10,0.0
11,0.0
12,0.0
13,0.0
14,7.7825642527929059
15,-11.682342721165587
16,4.29381006126431
17,-9.078378888328075
18,8.3941131245387
2,1, 1, 1, 0, 5,30.00,45.00,Tuesday
7,-10.725
8,0.0
9,0.0
10,0.0
11,0.0
12,0.0
13,0.0
14,7.728530550327861
15,-11.560659100221543
16,4.2680452755435
17,-8.98329498638509
18,8.335093159684842
2,1, 1, 1, 0, 5,45.00,60.00,Tuesday
7,-10.6
8,0.0
9,0.0
10,0.0
11,0.0
12,0.0
13,0.0
14,7.6753758647040499
15,-11.438984730418614
16,4.243127513852073
17,-8.887987964815125
18,8.277072804780865
2,1, 1, 1, 0, 6, 0.00,15.00,Tuesday
7,-10.6
8,0.0
9,0.0
10,0.0
11,0.0
12,0.0
13,0.0
14,7.615535758378597
15,-11.440127678239194
16,4.191489092716097
17,-8.890524050161389
18,8.218458931313823
2,1, 1, 1, 0, 6,15.00,30.00,Tuesday
7,-10.6
8,0.0
9,0.0
10,0.0
11,0.0
12,0.0
13,0.0
14,7.556343070769995
15,-11.441237925061222
16,4.140814815873682
17,-8.8995272829452
18,8.158571671847005
2,1, 1, 1, 0, 6,30.00,45.00,Tuesday
7,-10.6
8,0.0
9,0.0
10,0.0
11,0.0
12,0.0
13,0.0
14,7.49663743758774
15,-11.4423893498754
16,4.0903181290433399
17,-8.909059847459617
18,8.097716385835123
2,1, 1, 1, 0, 6,45.00,60.00,Tuesday
7,-10.6
8,0.0
9,0.0
10,0.0
11,0.0
12,0.0
13,0.0
14,7.436660961839372
15,-11.443537587309331
16,4.039481431548779
17,-8.918719610921017
18,8.036413068894932
2,1, 1, 1, 0, 7, 0.00,15.00,Tuesday
7,-10.6
8,0.0
9,0.0
10,0.0
11,0.0
12,0.0
13,0.0
14,7.378536243807956
15,-11.42205821921768
16,3.9812868306444217
17,-8.953939461617495
18,7.975297435317143
2,1, 1, 1, 0, 7,15.00,30.00,Tuesday
7,-10.6
8,0.0
9,0.0
10,0.0
11,0.0
12,0.0
13,0.0
14,7.320344411090357
15,-11.401692676120696
16,3.9251156238542537
17,-8.989491058221177
18,7.914692938256668
2,1, 1, 1, 0, 7,30.00,45.00,Tuesday
7,-10.6
8,0.0
9,0.0
10,0.0
11,0.0
12,0.0
13,0.0
14,7.262474238130308
15,-11.382367489798974
16,3.869437155576975
17,-9.024121315711853
18,7.8545760984505039
2,1, 1, 1, 0, 7,45.00,60.00,Tuesday
7,-10.6
8,0.0
9,0.0
10,0.0
11,0.0
12,0.0
13,0.0
14,7.204925150848847
15,-11.364020637899927
16,3.814295890874746
17,-9.057680309109628
18,7.794836079980375
2,1, 1, 1, 0, 8, 0.00,15.00,Tuesday
7,-10.45
8,0.0
9,0.0
10,0.0
11,0.0
12,0.0
13,0.0
14,7.147022678994356
15,-11.313617094472912
16,3.784692989699465
17,-9.001886360682534
18,7.735189788651876
2,1, 1, 1, 0, 8,15.00,30.00,Tuesday
7,-10.3
8,215.5879980222353
9,1.0
10,22.819555959623899
11,1.0
12,22.819555959623899
13,215.5879980222353
14,7.219264402767069
15,-9.639439043459009
16,4.0369873354655969
17,-8.69782130023259
18,7.696358183377091
2,1, 1, 1, 0, 8,30.00,45.00,Tuesday
7,-10.15
8,1058.5392312119832
9,1.0
10,109.75755355442667
11,1.0
12,109.75755355442667
13,1058.5392312119832
14,7.647310516704426
15,-3.2610002022083486
16,5.146496054747615
17,-7.701369738855874
18,7.736477852896727
2,1, 1, 1, 0, 8,45.00,60.00,Tuesday
7,-10.0
8,1924.8399544048012
9,1.0
10,195.8764694434918
11,1.0
12,195.8764694434918
13,1924.8399544048012
14,8.184047873889066
15,3.2070420857558474
16,6.378442810309593
17,-6.716468879897434
18,7.863661817700858
2,1, 1, 1, 0, 9, 0.00,15.00,Tuesday
7,-9.725
8,2788.1568045040946
9,1.0
10,278.97248314719988
11,1.0
12,278.97248314719988
13,2788.1568045040946
14,8.675742045384915
15,8.390981766043782
16,7.6379270962686409
17,-5.840107860209798
18,8.052116528198964
2,1, 1, 1, 0, 9,15.00,30.00,Tuesday
7,-9.45
8,3698.191694964431
9,1.0
10,364.91995730569456
11,1.0
12,364.91995730569456
13,3698.191694964431
14,9.164534813490443
15,13.463127094703518
16,8.996291795491175
17,-4.952322323243948
18,8.289546647849612
2,1, 1, 1, 0, 9,30.00,45.00,Tuesday
7,-9.175
8,4300.2673206835229
9,1.0
10,420.35879993239237
11,1.0
12,420.35879993239237
13,4300.2673206835229
14,9.5199551286909
15,16.21935207439671
16,9.89405967349245
17,-4.396301512539139
18,8.554196872331725
2,1, 1, 1, 0, 9,45.00,60.00,Tuesday
7,-8.9
8,4925.271017558337
9,1.0
10,478.00138373643099
11,1.0
12,478.00138373643099
13,4925.271017558337
14,9.934654579271787
15,19.213133317107116
16,10.778198432266663
17,-3.829018213725533
18,8.835109293452714
2,1, 1, 1, 0,10, 0.00,15.00,Tuesday
7,-8.350000000000002
8,5563.47927965646
9,1.0
10,536.9185644770597
11,1.0
12,536.9185644770597
13,5563.47927965646
14,10.300878008044029
15,20.325988515764789
16,11.701060540501544
17,-3.195259482387769
18,9.13278367785926
2,1, 1, 1, 0,10,15.00,30.00,Tuesday
7,-7.800000000000001
8,6223.735720388039
9,1.0
10,598.0969199229219
11,1.0
12,598.0969199229219
13,6223.735720388039
14,10.700110833252929
15,21.57549933672457
16,12.641159294069155
17,-2.5582210757878558
18,9.274168413266353
2,1, 1, 1, 0,10,30.00,45.00,Tuesday
7,-7.25
8,6656.871608685562
9,1.0
10,637.6133352894237
11,1.0
12,637.6133352894237
13,6656.871608685562
14,10.97505078488031
15,21.630695549693067
16,13.323524349953118
17,-2.0954371540231024
18,9.54740984476548
2,1, 1, 1, 0,10,45.00,60.00,Tuesday
7,-6.7
8,7083.627635407371
9,1.0
10,676.6412284283772
11,1.0
12,676.6412284283772
13,7083.627635407371
14,11.242177313012498
15,21.787068188670845
16,13.94462362316267
17,-1.6371982682827025
18,9.750097774230773
2,1, 1, 1, 0,11, 0.00,15.00,Tuesday
7,-6.275
8,7502.619881932496
9,1.0
10,715.0112779846514
11,1.0
12,715.0112779846514
13,7502.619881932496
14,11.66243715311384
15,23.886834456367873
16,14.62815151581384
17,-0.9764819053842757
18,10.217419821734602
2,1, 1, 1, 0,11,15.00,30.00,Tuesday
7,-5.85
8,7911.749570952164
9,1.0
10,752.5077794605232
11,1.0
12,752.5077794605232
13,7911.749570952164
14,12.135921537257359
15,25.824090580833596
16,15.36649797656122
17,-0.326550783579421
18,10.653924739159694
2,1, 1, 1, 0,11,30.00,45.00,Tuesday
7,-5.425
8,7790.156876744835
9,1.0
10,742.5988714321785
11,1.0
12,742.5988714321785
13,7790.156876744835
14,12.42770579072761
15,25.676036662719004
16,15.63291271174353
17,-0.004963834369050346
18,11.060425706002242
2,1, 1, 1, 0,11,45.00,60.00,Tuesday
7,-5.0
8,7616.415097398768
9,1.0
10,727.8169025450712
11,1.0
12,727.8169025450712
13,7616.415097398768
14,12.705827450686542
15,25.44798364428549
16,15.801819944306658
17,0.2890289030611939
18,11.420579077915108
2,1, 1, 1, 0,12, 0.00,15.00,Tuesday
7,-4.575
8,7317.63187899619
9,1.0
10,700.3759009170325
11,1.0
12,700.3759009170325
13,7317.63187899619
14,12.906213168163273
15,24.70616541165673
16,15.829884080638749
17,0.5392009134789078
18,11.730493800648219
2,1, 1, 1, 0,12,15.00,30.00,Tuesday
7,-4.15
8,7096.045470548525
9,1.0
10,681.6705029034473
11,1.0
12,681.6705029034473
13,7096.045470548525
14,13.126688842934879
15,24.376583173021556
16,15.918129425173675
17,0.848893315217083
18,12.00285066020149
2,1, 1, 1, 0,12,30.00,45.00,Tuesday
7,-3.7249999999999998
8,6229.736928425406
9,1.0
10,602.01865277251
11,1.0
12,602.01865277251
13,6229.736928425406
14,13.040843685779084
15,21.347873466308476
16,15.359212065387056
17,0.752277702864319
18,12.21309538782406
2,1, 1, 1, 0,12,45.00,60.00,Tuesday
7,-3.3
8,5087.904404183855
9,1.0
10,493.55004396206007
11,1.0
12,493.55004396206007
13,5087.904404183855
14,12.845874711084719
15,17.170925567315636
16,14.367041562941154
17,0.44185107632347356
18,12.328602597831419
2,1, 1, 1, 0,13, 0.00,15.00,Tuesday
7,-3.0249999999999996
8,4201.063393949559
9,1.0
10,412.335026418112
11,1.0
12,412.335026418112
13,4201.063393949559
14,12.711517847441295
15,14.328004854290628
16,13.566951491472878
17,0.24799250233263593
18,12.367819828418649
2,1, 1, 1, 0,13,15.00,30.00,Tuesday
7,-2.75
8,3076.892122430221
9,1.0
10,305.94037763660148
11,1.0
12,305.94037763660148
13,3076.892122430221
14,12.37491068649737
15,10.155698492763856
16,12.4082198402632
17,-0.14628264681260817
18,12.342249909008129
2,1, 1, 1, 0,13,30.00,45.00,Tuesday
7,-2.475
8,2809.0935899127655
9,1.0
10,281.0763483922329
11,1.0
12,281.0763483922329
13,2809.0935899127655
14,12.345967077750372
15,9.644354343862709
16,12.099871222477305
17,0.008474510923349499
18,12.296238681341933
2,1, 1, 1, 0,13,45.00,60.00,Tuesday
7,-2.2
8,2546.8736709552365
9,1.0
10,256.7721209415886
11,1.0
12,256.7721209415886
13,2546.8736709552365
14,12.306503408144847
15,9.038542351477503
16,11.903992936843736
17,0.19093388339717877
18,12.256952363934439
2,1, 1, 1, 0,14, 0.00,15.00,Tuesday
7,-1.9250000000000003
8,2080.536760270814
9,1.0
10,210.73276284570657
11,1.0
12,210.73276284570657
13,2080.536760270814
14,12.141177587625473
15,7.492002343096342
16,11.430878630559164
17,0.18253379820015426
18,12.219777736429102
2,1, 1, 1, 0,14,15.00,30.00,Tuesday
7,-1.6500000000000002
8,1848.1882299855229
9,1.0
10,189.38488290342594
11,1.0
12,189.38488290342594
13,1848.1882299855229
14,12.102866237721426
15,7.091605455370857
16,11.211103238612168
17,0.343215412605673
18,12.184657521391055
2,1, 1, 1, 0,14,30.00,45.00,Tuesday
7,-1.375
8,1762.648528253172
9,1.0
10,179.3940297802914
11,1.0
12,179.3940297802914
13,1762.648528253172
14,12.086230348676019
15,7.216054752590045
16,11.163463858526257
17,0.5939537922284899
18,12.153462189968712
2,1, 1, 1, 0,14,45.00,60.00,Tuesday
7,-1.1
8,1676.1315823352277
9,1.0
10,169.43349014176136
11,1.0
12,169.43349014176136
13,1676.1315823352277
14,12.065703644908487
15,7.317262820779203
16,11.107722589337812
17,0.8436102485766241
18,12.125820949065555
2,1, 1, 1, 0,15, 0.00,15.00,Tuesday
7,-1.1
8,1764.2336451764168
9,1.0
10,178.15692317953907
11,1.0
12,178.15692317953907
13,1764.2336451764168
14,12.130697121616083
15,8.136615747755263
16,11.21340302635042
17,0.9692469959287564
18,12.106110351549607
2,1, 1, 1, 0,15,15.00,30.00,Tuesday
7,-1.1
8,1657.44905719483
9,1.0
10,166.40516310952945
11,1.0
12,166.40516310952945
13,1657.44905719483
14,12.071936328394438
15,7.775719954069172
16,11.097805350058423
17,0.9339221995447815
18,12.088979226916253
2,1, 1, 1, 0,15,30.00,45.00,Tuesday
7,-1.1
8,1397.5312645024297
9,1.0
10,140.8967369711617
11,1.0
12,140.8967369711617
13,1397.5312645024297
14,11.932657822903267
15,6.568641466489375
16,10.769497969318877
17,0.7605982461340091
18,12.063233519684113
2,1, 1, 1, 0,15,45.00,60.00,Tuesday
7,-1.1
8,1150.0543343484979
9,1.0
10,116.57355796743004
11,1.0
12,116.57355796743004
13,1150.0543343484979
14,11.819659398051892
15,5.368879957726465
16,10.435938180040808
17,0.5788756391854122
18,12.01560577596383
2,1, 1, 1, 0,16, 0.00,15.00,Tuesday
7,-1.1
8,912.7487358563033
9,1.0
10,93.14939272689483
11,1.0
12,93.14939272689483
13,912.7487358563033
14,11.697733119767842
15,4.321504409038295
16,10.139756396323378
17,0.48474584592088379
18,11.947370301458584
2,1, 1, 1, 0,16,15.00,30.00,Tuesday
7,-1.1
8,566.636069103818
9,1.0
10,57.94047897402063
11,1.0
12,57.94047897402063
13,566.636069103818
14,11.482400911038815
15,2.2038825127894614
16,9.68192323817243
17,0.263725706635455
18,11.853043435785434
2,1, 1, 1, 0,16,30.00,45.00,Tuesday
7,-1.1
8,439.3280485110057
9,1.0
10,45.38251793443488
11,1.0
12,45.38251793443488
13,439.3280485110057
14,11.39333123481955
15,1.6006239002664709
16,9.467763782135421
17,0.25557930973161549
18,11.748070903684335
2,1, 1, 1, 0,16,45.00,60.00,Tuesday
7,-1.1
8,306.6800834820858
9,1.0
10,32.02625108222755
11,1.0
12,32.02625108222755
13,306.6800834820858
14,11.264092878359384
15,0.7460592871323596
16,9.274934039529058
17,0.24844056191705023
18,11.64546540495809
2,1, 1, 1, 0,17, 0.00,15.00,Tuesday
7,-1.1
8,168.21359625367695
9,1.0
10,17.762198626050539
11,1.0
12,17.762198626050539
13,168.21359625367695
14,11.11117304962289
15,-0.4934381337864465
16,9.032198193918476
17,0.13267257057611915
18,11.543169689388357
2,1, 1, 1, 0,17,15.00,30.00,Tuesday
7,-1.1
8,0.0
9,0.0
10,0.0
11,0.0
12,0.0
13,0.0
14,10.907522097131937
15,-2.3250758629485626
16,8.712951891990656
17,-0.11210534479778289
18,11.427396291388643
2,1, 1, 1, 0,17,30.00,45.00,Tuesday
7,-1.1
8,0.0
9,0.0
10,0.0
11,0.0
12,0.0
13,0.0
14,10.841171881050123
15,-2.455272122322833
16,8.62081514825752
17,-0.06825835838782268
18,11.314321593031658
2,1, 1, 1, 0,17,45.00,60.00,Tuesday
7,-1.1
8,0.0
9,0.0
10,0.0
11,0.0
12,0.0
13,0.0
14,10.75827686305406
15,-2.636459305166332
16,8.571954254071614
17,-0.011639683162115944
18,11.218748741086877
2,1, 1, 1, 0,18, 0.00,15.00,Tuesday
7,-1.25
8,0.0
9,0.0
10,0.0
11,0.0
12,0.0
13,0.0
14,10.687026347488555
15,-2.7855740737365779
16,8.475774202774688
17,-0.15364041007251218
18,11.140859565234788
2,1, 1, 1, 0,18,15.00,30.00,Tuesday
7,-1.4
8,0.0
9,0.0
10,0.0
11,0.0
12,0.0
13,0.0
14,10.62157981312775
15,-2.9380697568454554
16,8.392147755084068
17,-0.28861782226465496
18,11.074655792766024
2,1, 1, 1, 0,18,30.00,45.00,Tuesday
7,-1.5499999999999999
8,0.0
9,0.0
10,0.0
11,0.0
12,0.0
13,0.0
14,10.560411085411748
15,-3.090255240033412
16,8.31333940427703
17,-0.42271796576892486
18,11.014404486776169
2,1, 1, 1, 0,18,45.00,60.00,Tuesday
7,-1.7
8,0.0
9,0.0
10,0.0
11,0.0
12,0.0
13,0.0
14,10.501138830217874
15,-3.242606866363201
16,8.237450308334133
17,-0.5561948151672027
18,10.956734478696989
2,1, 1, 1, 0,19, 0.00,15.00,Tuesday
7,-1.825
8,0.0
9,0.0
10,0.0
11,0.0
12,0.0
13,0.0
14,10.46384059424129
15,-3.110417416509517
16,8.142166516160842
17,-0.7614336055365811
18,10.9033760703907
2,1, 1, 1, 0,19,15.00,30.00,Tuesday
7,-1.9500000000000002
8,0.0
9,0.0
10,0.0
11,0.0
12,0.0
13,0.0
14,10.427063912593598
15,-3.057634219956002
16,8.062778729255115
17,-0.9501815890855028
18,10.856291620985992
2,1, 1, 1, 0,19,30.00,45.00,Tuesday
7,-2.075
8,0.0
9,0.0
10,0.0
11,0.0
12,0.0
13,0.0
14,10.384486062215199
15,-3.1353192569235195
16,8.003847073404132
17,-1.07965462298273
18,10.814089255344879
2,1, 1, 1, 0,19,45.00,60.00,Tuesday
7,-2.2
8,0.0
9,0.0
10,0.0
11,0.0
12,0.0
13,0.0
14,10.345476024493552
15,-3.1253060056745189
16,7.928853253881471
17,-1.257596504700416
18,10.77369698085636
2,1, 1, 1, 0,20, 0.00,15.00,Tuesday
7,-1.9250000000000003
8,0.0
9,0.0
10,0.0
11,0.0
12,0.0
13,0.0
14,10.32294150859803
15,-2.8271624485912838
16,7.953012793641676
17,-1.0585774525594616
18,10.736007798426173
2,1, 1, 1, 0,20,15.00,30.00,Tuesday
7,-1.6500000000000002
8,0.0
9,0.0
10,0.0
11,0.0
12,0.0
13,0.0
14,10.29978297301555
15,-2.5317593114376018
16,7.9752454578944029
17,-0.8483439263195578
18,10.70164720508543
2,1, 1, 1, 0,20,30.00,45.00,Tuesday
7,-1.375
8,0.0
9,0.0
10,0.0
11,0.0
12,0.0
13,0.0
14,10.278584220898467
15,-2.237456156018798
16,7.998818140616095
17,-0.6357797493710109
18,10.67013540428159
2,1, 1, 1, 0,20,45.00,60.00,Tuesday
7,-1.1
8,0.0
9,0.0
10,0.0
11,0.0
12,0.0
13,0.0
14,10.258982519338339
15,-1.944294422842801
16,8.024493162088163
17,-0.420918831339236
18,10.640708073004637
2,1, 1, 1, 0,21, 0.00,15.00,Tuesday
7,-1.25
8,0.0
9,0.0
10,0.0
11,0.0
12,0.0
13,0.0
14,10.201459603061876
15,-2.212934007892022
16,7.9866914595621669
17,-0.4664623826161005
18,10.60670934816459
2,1, 1, 1, 0,21,15.00,30.00,Tuesday
7,-1.4
8,0.0
9,0.0
10,0.0
11,0.0
12,0.0
13,0.0
14,10.144722642061196
15,-2.4228057271184735
16,7.929510437237013
17,-0.5481040698088009
18,10.563662615292602
2,1, 1, 1, 0,21,30.00,45.00,Tuesday
7,-1.5499999999999999
8,0.0
9,0.0
10,0.0
11,0.0
12,0.0
13,0.0
14,10.075513357623791
15,-2.7504065838685864
16,7.884050787086721
17,-0.5775242834695291
18,10.511068423947887
2,1, 1, 1, 0,21,45.00,60.00,Tuesday
7,-1.7
8,0.0
9,0.0
10,0.0
11,0.0
12,0.0
13,0.0
14,10.001062928628246
15,-3.1829153708922197
16,7.838741252969442
17,-0.5731847627052957
18,10.451340355667297
2,1, 1, 1, 0,22, 0.00,15.00,Tuesday
7,-1.5499999999999999
8,0.0
9,0.0
10,0.0
11,0.0
12,0.0
13,0.0
14,9.988984226614049
15,-2.7180989884010184
16,7.783466274352691
17,-0.592039826313453
18,10.397439009257555
2,1, 1, 1, 0,22,15.00,30.00,Tuesday
7,-1.4
8,0.0
9,0.0
10,0.0
11,0.0
12,0.0
13,0.0
14,9.967694542924697
15,-2.403290809890833
16,7.7666162088860919
17,-0.5758590393307941
18,10.356234192984365
2,1, 1, 1, 0,22,30.00,45.00,Tuesday
7,-1.25
8,0.0
9,0.0
10,0.0
11,0.0
12,0.0
13,0.0
14,9.946226313360948
15,-2.1900701061886549
16,7.760624707028171
17,-0.4946022786383537
18,10.325178475465663
2,1, 1, 1, 0,22,45.00,60.00,Tuesday
7,-1.1
8,0.0
9,0.0
10,0.0
11,0.0
12,0.0
13,0.0
14,9.928578021553142
15,-1.919834180542287
16,7.7498682484217629
17,-0.44414298234414675
18,10.298927474039754
2,1, 1, 1, 0,23, 0.00,15.00,Tuesday
7,-1.25
8,0.0
9,0.0
10,0.0
11,0.0
12,0.0
13,0.0
14,9.87019076120868
15,-2.2230040239582879
16,7.65721416692179
17,-0.7262881479327916
18,10.267149426049763
2,1, 1, 1, 0,23,15.00,30.00,Tuesday
7,-1.4
8,0.0
9,0.0
10,0.0
11,0.0
12,0.0
13,0.0
14,9.813959419659316
15,-2.527737605440162
16,7.55210888096002
17,-1.0200994099757282
18,10.225163691326476
2,1, 1, 1, 0,23,30.00,45.00,Tuesday
7,-1.5499999999999999
8,0.0
9,0.0
10,0.0
11,0.0
12,0.0
13,0.0
14,9.752815166997955
15,-2.8331227524570035
16,7.444932864363977
17,-1.3153010739576985
18,10.174502883692794
2,1, 1, 1, 0,23,45.00,60.00,Tuesday
7,-1.7
8,0.0
9,0.0
10,0.0
11,0.0
12,0.0
13,0.0
14,9.68780608407687
15,-3.138852753874873
16,7.333557371219854
17,-1.6123391379136365
18,10.118291031183505
2,1, 1, 1, 0,24, 0.00,15.00,Tuesday
7,-1.7
8,0.0
9,0.0
10,0.0
11,0.0
12,0.0
13,0.0
14,9.638081865600384
15,-3.1932122748088025
16,7.274092995235833
17,-1.6802878126497376
18,10.062074930441538
2,1, 1, 1, 0,24,15.00,30.00,Tuesday
7,-1.7
8,0.0
9,0.0
10,0.0
11,0.0
12,0.0
13,0.0
14,9.586428097342055
15,-3.2480770165477335
16,7.219234944895675
17,-1.7451387103135403
18,10.008641346079945
2,1, 1, 1, 0,24,30.00,45.00,Tuesday
7,-1.7
8,0.0
9,0.0
10,0.0
11,0.0
12,0.0
13,0.0
14,9.536009134525648
15,-3.302835665859715
16,7.16431743137241
17,-1.8098100844057968
18,9.95777645116584
2,1, 1, 1, 0,24,45.00,60.00,Tuesday
7,-1.7
8,0.0
9,0.0
10,0.0
11,0.0
12,0.0
13,0.0
14,9.486465472113642
15,-3.3575994229119869
16,7.1104702072345848
17,-1.8739128976311577
18,9.908360829911024
End of Data
 Number of Records Written=        1152
