Program Version,EnergyPlus, Version 9.5.0-de239b2e5f, YMD=2023.02.17 15:25
1,5,Environment Title[],Latitude[deg],Longitude[deg],Time Zone[],Elevation[m]
2,8,Day of Simulation[],Month[],Day of Month[],DST Indicator[1=yes 0=no],Hour[],StartMinute[],EndMinute[],DayType
3,5,Cumulative Day of Simulation[],Month[],Day of Month[],DST Indicator[1=yes 0=no],DayType  ! When Daily Report Variables Requested
4,2,Cumulative Days of Simulation[],Month[]  ! When Monthly Report Variables Requested
5,1,Cumulative Days of Simulation[] ! When Run Period Report Variables Requested
6,1,Calendar Year of Simulation[] ! When Annual Report Variables Requested
7,1,Environment,Site Outdoor Air Drybulb Temperature [C] !TimeStep
8,1,ZONE ONE,Zone Windows Total Transmitted Solar Radiation Rate [W] !TimeStep
9,1,ZN001:WALL001,Surface Outside Face Sunlit Fraction [] !TimeStep
10,1,ZN001:WALL001,Surface Outside Face Incident Solar Radiation Rate per Area [W/m2] !TimeStep
11,1,ZN001:WALL001:WIN001,Surface Outside Face Sunlit Fraction [] !TimeStep
12,1,ZN001:WALL001:WIN001,Surface Outside Face Incident Solar Radiation Rate per Area [W/m2] !TimeStep
13,1,ZN001:WALL001:WIN001,Surface Window Transmitted Solar Radiation Rate [W] !TimeStep
14,1,ZN001:WALL001,Surface Inside Face Temperature [C] !TimeStep
15,1,ZN001:WALL001,Surface Outside Face Temperature [C] !TimeStep
16,1,ZN001:WALL001:WIN001,Surface Inside Face Temperature [C] !TimeStep
17,1,ZN001:WALL001:WIN001,Surface Outside Face Temperature [C] !TimeStep
18,1,ZONE ONE,Zone Mean Air Temperature [C] !TimeStep
End of Data Dictionary
1,RUN PERIOD 1,  41.98, -87.92,  -6.00, 201.00
2,1, 1, 1, 0, 1, 0.00,15.00,Tuesday
7,-4.324999999999999
8,0.0
9,0.0
10,0.0
11,0.0
12,0.0
13,0.0
14,-0.08318200603144431
15,-6.0058292520720519
16,-2.051569050719479
17,-4.869484961075557
18,0.2119840895509415
2,1, 1, 1, 0, 1,15.00,30.00,Tuesday
7,-6.949999999999999
8,0.0
9,0.0
10,0.0
11,0.0
12,0.0
13,0.0
14,-0.2616647418054119
15,-8.47377872989591
16,-2.929093047588708
17,-6.7683111488287299
18,0.12387229188816013
2,1, 1, 1, 0, 1,30.00,45.00,Tuesday
7,-9.575
8,0.0
9,0.0
10,0.0
11,0.0
12,0.0
13,0.0
14,-0.4629356320823855
15,-10.9507142790156
16,-3.8066728700828209
17,-8.673371609869719
18,-0.001994099980871879
2,1, 1, 1, 0, 1,45.00,60.00,Tuesday
7,-12.2
8,0.0
9,0.0
10,0.0
11,0.0
12,0.0
13,0.0
14,-0.6817643087144844
15,-13.434167336288672
16,-4.69665515361487
17,-10.587782635930694
18,-0.1551164729285103
2,1, 1, 1, 0, 2, 0.00,15.00,Tuesday
7,-12.075
8,0.0
9,0.0
10,0.0
11,0.0
12,0.0
13,0.0
14,-0.7381958526904365
15,-13.236245020792275
16,-4.71239622357632
17,-10.474694965612799
18,-0.2925358723563025
2,1, 1, 1, 0, 2,15.00,30.00,Tuesday
7,-11.95
8,0.0
9,0.0
10,0.0
11,0.0
12,0.0
13,0.0
14,-0.8105774287729423
15,-13.058980081738259
16,-4.709209172713315
17,-10.351022051891846
18,-0.3942310925553348
2,1, 1, 1, 0, 2,30.00,45.00,Tuesday
7,-11.825
8,0.0
9,0.0
10,0.0
11,0.0
12,0.0
13,0.0
14,-0.8638945632192302
15,-12.880370878727947
16,-4.7005774538964719
17,-10.225616035461599
18,-0.4651758894322371
2,1, 1, 1, 0, 2,45.00,60.00,Tuesday
7,-11.7
8,0.0
9,0.0
10,0.0
11,0.0
12,0.0
13,0.0
14,-0.9044852928400261
15,-12.701818682870286
16,-4.679406170767493
17,-10.095412721003527
18,-0.5172728943937105
2,1, 1, 1, 0, 3, 0.00,15.00,Tuesday
7,-11.549999999999999
8,0.0
9,0.0
10,0.0
11,0.0
12,0.0
13,0.0
14,-0.9427810016754995
15,-12.578282254972029
16,-4.6513987907023879
17,-9.964948071316826
18,-0.5605820233071935
2,1, 1, 1, 0, 3,15.00,30.00,Tuesday
7,-11.399999999999999
8,0.0
9,0.0
10,0.0
11,0.0
12,0.0
13,0.0
14,-0.9771158729581784
15,-12.456222803017852
16,-4.620986838557997
17,-9.834555468976248
18,-0.6003928998709824
2,1, 1, 1, 0, 3,30.00,45.00,Tuesday
7,-11.25
8,0.0
9,0.0
10,0.0
11,0.0
12,0.0
13,0.0
14,-1.0101330467874308
15,-12.335821487829458
16,-4.588701578211044
17,-9.704083716697597
18,-0.6385387881375746
2,1, 1, 1, 0, 3,45.00,60.00,Tuesday
7,-11.1
8,0.0
9,0.0
10,0.0
11,0.0
12,0.0
13,0.0
14,-1.042412751506358
15,-12.217139194788638
16,-4.555746978582761
17,-9.573987879073343
18,-0.6754722541471778
2,1, 1, 1, 0, 4, 0.00,15.00,Tuesday
7,-11.1
8,0.0
9,0.0
10,0.0
11,0.0
12,0.0
13,0.0
14,-1.0785204761597378
15,-12.18516874690152
16,-4.600164744466497
17,-9.599307465444327
18,-0.7125185354782503
2,1, 1, 1, 0, 4,15.00,30.00,Tuesday
7,-11.1
8,0.0
9,0.0
10,0.0
11,0.0
12,0.0
13,0.0
14,-1.1142751868022405
15,-12.154448570442142
16,-4.637541567794187
17,-9.630943583198416
18,-0.7501949102685451
2,1, 1, 1, 0, 4,30.00,45.00,Tuesday
7,-11.1
8,0.0
9,0.0
10,0.0
11,0.0
12,0.0
13,0.0
14,-1.1503109565603305
15,-12.125430778923283
16,-4.673710251263287
17,-9.662798273902013
18,-0.7883646920330636
2,1, 1, 1, 0, 4,45.00,60.00,Tuesday
7,-11.1
8,0.0
9,0.0
10,0.0
11,0.0
12,0.0
13,0.0
14,-1.1865233896236665
15,-12.097975173352339
16,-4.7095282717667719
17,-9.69398810976702
18,-0.8267475902947444
2,1, 1, 1, 0, 5, 0.00,15.00,Tuesday
7,-10.975
8,0.0
9,0.0
10,0.0
11,0.0
12,0.0
13,0.0
14,-1.216715953756499
15,-11.975644501856478
16,-4.690838555673849
17,-9.617255792284596
18,-0.8639164093359675
2,1, 1, 1, 0, 5,15.00,30.00,Tuesday
7,-10.85
8,0.0
9,0.0
10,0.0
11,0.0
12,0.0
13,0.0
14,-1.2466540114876626
15,-11.853418651121281
16,-4.674787082819762
17,-9.533431077215596
18,-0.899276682521797
2,1, 1, 1, 0, 5,30.00,45.00,Tuesday
7,-10.725
8,0.0
9,0.0
10,0.0
11,0.0
12,0.0
13,0.0
14,-1.2745000423117508
15,-11.731168918915446
16,-4.658723743999701
17,-9.448505232259209
18,-0.9329489574824684
2,1, 1, 1, 0, 5,45.00,60.00,Tuesday
7,-10.6
8,0.0
9,0.0
10,0.0
11,0.0
12,0.0
13,0.0
14,-1.3024593190645979
15,-11.608963819850464
16,-4.641694580677381
17,-9.363067680833638
18,-0.9654159265546108
2,1, 1, 1, 0, 6, 0.00,15.00,Tuesday
7,-10.6
8,0.0
9,0.0
10,0.0
11,0.0
12,0.0
13,0.0
14,-1.3389777140600934
15,-11.609718156973259
16,-4.6650047144807449
17,-9.367325178804095
18,-0.9985845544870688
2,1, 1, 1, 0, 6,15.00,30.00,Tuesday
7,-10.6
8,0.0
9,0.0
10,0.0
11,0.0
12,0.0
13,0.0
14,-1.3738907044585338
15,-11.61033240665563
16,-4.690392694681975
17,-9.375214683830905
18,-1.033323870956009
2,1, 1, 1, 0, 6,30.00,45.00,Tuesday
7,-10.6
8,0.0
9,0.0
10,0.0
11,0.0
12,0.0
13,0.0
14,-1.4095130466189077
15,-11.61103524686928
16,-4.715646756319984
17,-9.3838391366927
18,-1.0693482197777978
2,1, 1, 1, 0, 6,45.00,60.00,Tuesday
7,-10.6
8,0.0
9,0.0
10,0.0
11,0.0
12,0.0
13,0.0
14,-1.4455338988606633
15,-11.611734147207596
16,-4.741176623166496
17,-9.392883137166962
18,-1.1060818994193793
2,1, 1, 1, 0, 7, 0.00,15.00,Tuesday
7,-10.6
8,0.0
9,0.0
10,0.0
11,0.0
12,0.0
13,0.0
14,-1.4794039964007695
15,-11.585389870515256
16,-4.778940911364998
17,-9.417887738299726
18,-1.1429119167267566
2,1, 1, 1, 0, 7,15.00,30.00,Tuesday
7,-10.6
8,0.0
9,0.0
10,0.0
11,0.0
12,0.0
13,0.0
14,-1.513489198523397
15,-11.56041893451807
16,-4.811728309384762
17,-9.443609480043847
18,-1.1793952263917238
2,1, 1, 1, 0, 7,30.00,45.00,Tuesday
7,-10.6
8,0.0
9,0.0
10,0.0
11,0.0
12,0.0
13,0.0
14,-1.5473830121477994
15,-11.536709141192825
16,-4.843796653370987
17,-9.469035583731682
18,-1.215454293686538
2,1, 1, 1, 0, 7,45.00,60.00,Tuesday
7,-10.6
8,0.0
9,0.0
10,0.0
11,0.0
12,0.0
13,0.0
14,-1.5810243587914484
15,-11.514186342753119
16,-4.875327431279857
17,-9.493745185944704
18,-1.2511618148399007
2,1, 1, 1, 0, 8, 0.00,15.00,Tuesday
7,-10.45
8,0.0
9,0.0
10,0.0
11,0.0
12,0.0
13,0.0
14,-1.6155070554850202
15,-11.467146166845206
16,-4.871603067069941
17,-9.449557773110712
18,-1.2867212811366403
2,1, 1, 1, 0, 8,15.00,30.00,Tuesday
7,-10.3
8,62.74310911265812
9,1.0
10,22.819555959623899
11,1.0
12,22.819555959623899
13,62.74310911265812
14,-1.5452321422511009
15,-9.79445135210804
16,-4.457881843420012
17,-9.041394163006033
18,-1.3079068491946354
2,1, 1, 1, 0, 8,30.00,45.00,Tuesday
7,-10.15
8,308.5730894002722
9,1.0
10,109.75755355442667
11,1.0
12,109.75755355442667
13,308.5730894002722
14,-1.1897640339783807
15,-3.439495529471967
16,-2.8160960496429086
17,-7.597070716447433
18,-1.2761936642736176
2,1, 1, 1, 0, 8,45.00,60.00,Tuesday
7,-10.0
8,562.799684008513
9,1.0
10,195.8764694434918
11,1.0
12,195.8764694434918
13,562.799684008513
14,-0.7636193838606304
15,3.049531846655678
16,-1.0383142160432045
17,-6.120241256339057
18,-1.1867266427501476
2,1, 1, 1, 0, 9, 0.00,15.00,Tuesday
7,-9.725
8,817.8903373303126
9,1.0
10,278.97248314719988
11,1.0
12,278.97248314719988
13,817.8903373303126
14,-0.43185035767412235
15,8.239716722060216
16,0.5932599908741736
17,-4.833303775634249
18,-1.0537060039995599
2,1, 1, 1, 0, 9,15.00,30.00,Tuesday
7,-9.45
8,1088.679544158928
9,1.0
10,364.91995730569456
11,1.0
12,364.91995730569456
13,1088.679544158928
14,-0.07816233915369171
15,13.321086336764344
16,2.1839768546475399
17,-3.5612937377117079
18,-0.8836817528404106
2,1, 1, 1, 0, 9,30.00,45.00,Tuesday
7,-9.175
8,1270.4567436635296
9,1.0
10,420.35879993239237
11,1.0
12,420.35879993239237
13,1270.4567436635296
14,0.16159699261156897
15,16.081931498197578
16,3.2094210182308986
17,-2.7733933131180494
18,-0.6946625502944873
2,1, 1, 1, 0, 9,45.00,60.00,Tuesday
7,-8.9
8,1460.1360172942112
9,1.0
10,478.00138373643099
11,1.0
12,478.00138373643099
13,1460.1360172942112
14,0.44393630106028228
15,19.07803769829685
16,4.248896486052217
17,-1.9676182361185398
18,-0.49479386690178447
2,1, 1, 1, 0,10, 0.00,15.00,Tuesday
7,-8.350000000000002
8,1654.8116028101584
9,1.0
10,536.9185644770597
11,1.0
12,536.9185644770597
13,1654.8116028101584
14,0.6648898297172451
15,20.20061754236218
16,5.2868737857529599
17,-1.1966322873468585
18,-0.27898499932530787
2,1, 1, 1, 0,10,15.00,30.00,Tuesday
7,-7.800000000000001
8,1857.0082543899935
9,1.0
10,598.0969199229219
11,1.0
12,598.0969199229219
13,1857.0082543899935
14,0.9095587183755709
15,21.457331134616319
16,6.340747633052501
17,-0.4295746947424277
18,-0.049528726397407737
2,1, 1, 1, 0,10,30.00,45.00,Tuesday
7,-7.25
8,1992.0601086428258
9,1.0
10,637.6133352894237
11,1.0
12,637.6133352894237
13,1992.0601086428258
14,1.0879036098238304
15,21.520438972147905
16,7.0578543815599918
17,0.06947434286348653
18,0.17950540218679712
2,1, 1, 1, 0,10,45.00,60.00,Tuesday
7,-6.7
8,2125.4860325366059
9,1.0
10,676.6412284283772
11,1.0
12,676.6412284283772
13,2125.4860325366059
14,1.2810599302354687
15,21.6833217822233
16,7.75407434874046
17,0.5629343007138914
18,0.39974698127412869
2,1, 1, 1, 0,11, 0.00,15.00,Tuesday
7,-6.275
8,2256.693067527073
9,1.0
10,715.0112779846514
11,1.0
12,715.0112779846514
13,2256.693067527073
14,1.5518494935009777
15,23.78041339765294
16,8.547492647640297
17,1.3347406416918375
18,0.6161993631622692
2,1, 1, 1, 0,11,15.00,30.00,Tuesday
7,-5.85
8,2384.8617842402206
9,1.0
10,752.5077794605232
11,1.0
12,752.5077794605232
13,2384.8617842402206
14,1.808127495526068
15,25.71522477474077
16,9.323193683081513
17,2.086973251671793
18,0.8342341258247844
2,1, 1, 1, 0,11,30.00,45.00,Tuesday
7,-5.425
8,2350.664610034857
9,1.0
10,742.5988714321785
11,1.0
12,742.5988714321785
13,2350.664610034857
14,1.9479817828855657
15,25.567062083401724
16,9.422567996263297
17,2.3307938973686079
18,1.0388739297597259
2,1, 1, 1, 0,11,45.00,60.00,Tuesday
7,-5.0
8,2299.7215542778105
9,1.0
10,727.8169025450712
11,1.0
12,727.8169025450712
13,2299.7215542778105
14,2.0847717602922755
15,25.337347410273087
16,9.437065714384403
17,2.5320719672538418
18,1.2197143652762195
2,1, 1, 1, 0,12, 0.00,15.00,Tuesday
7,-4.575
8,2210.61548540657
9,1.0
10,700.3759009170325
11,1.0
12,700.3759009170325
13,2210.61548540657
14,2.1752624942444358
15,24.594356011140986
16,9.28331694873134
17,2.641806090948535
18,1.3720783061705229
2,1, 1, 1, 0,12,15.00,30.00,Tuesday
7,-4.15
8,2143.1160997999725
9,1.0
10,681.6705029034473
11,1.0
12,681.6705029034473
13,2143.1160997999725
14,2.2837036826140264
15,24.263461939600146
16,9.240153311173572
17,2.8400409279106499
18,1.5028431692875897
2,1, 1, 1, 0,12,30.00,45.00,Tuesday
7,-3.7249999999999998
8,1879.4711091231216
9,1.0
10,602.01865277251
11,1.0
12,602.01865277251
13,1879.4711091231216
14,2.1970365487072796
15,21.235067267664438
16,8.327031270045211
17,2.4120603077258808
18,1.594978524791758
2,1, 1, 1, 0,12,45.00,60.00,Tuesday
7,-3.3
8,1533.7051677701307
9,1.0
10,493.55004396206007
11,1.0
12,493.55004396206007
13,1533.7051677701307
14,2.0231091097856006
15,17.05617681250488
16,6.930865259269865
17,1.6556748566954412
18,1.6314838836506483
2,1, 1, 1, 0,13, 0.00,15.00,Tuesday
7,-3.0249999999999996
8,1262.7178701484746
9,1.0
10,412.335026418112
11,1.0
12,412.335026418112
13,1262.7178701484746
14,1.9018114541945855
15,14.210927128971227
16,5.866598041683176
17,1.1320022485253958
18,1.624709724399366
2,1, 1, 1, 0,13,15.00,30.00,Tuesday
7,-2.75
8,921.7403004904563
9,1.0
10,305.94037763660148
11,1.0
12,305.94037763660148
13,921.7403004904563
14,1.6586865756208118
15,10.037305429106486
16,4.372903363448415
17,0.29675141303209787
18,1.5809910115863984
2,1, 1, 1, 0,13,30.00,45.00,Tuesday
7,-2.475
8,839.9213774858611
9,1.0
10,281.0763483922329
11,1.0
12,281.0763483922329
13,839.9213774858611
14,1.6495809974019354
15,9.523450735622717
16,4.0924012743928419
17,0.3362871508255125
18,1.5282018989033975
2,1, 1, 1, 0,13,45.00,60.00,Tuesday
7,-2.2
8,759.813419127724
9,1.0
10,256.7721209415886
11,1.0
12,256.7721209415886
13,759.813419127724
14,1.6217666509101805
15,8.915621442403284
16,3.852178558158812
17,0.3924492423082029
18,1.4849452796925554
2,1, 1, 1, 0,14, 0.00,15.00,Tuesday
7,-1.9250000000000003
8,619.6802810752625
9,1.0
10,210.73276284570657
11,1.0
12,210.73276284570657
13,619.6802810752625
14,1.5272370391691506
15,7.366760397727363
16,3.2431297309640287
17,0.16940865983633558
18,1.4473426672442569
2,1, 1, 1, 0,14,15.00,30.00,Tuesday
7,-1.6500000000000002
8,548.8378620643327
9,1.0
10,189.38488290342594
11,1.0
12,189.38488290342594
13,548.8378620643327
14,1.5098619207114446
15,6.9591442852920439
16,3.0088638990364986
17,0.20966468747559476
18,1.4155927931607558
2,1, 1, 1, 0,14,30.00,45.00,Tuesday
7,-1.375
8,523.7049020298316
9,1.0
10,179.3940297802914
11,1.0
12,179.3940297802914
13,523.7049020298316
14,1.5156392628135898
15,7.07792957392564
16,2.97790535412139
17,0.3900020491455507
18,1.3917154100417216
2,1, 1, 1, 0,14,45.00,60.00,Tuesday
7,-1.1
8,498.0530377746454
9,1.0
10,169.43349014176136
11,1.0
12,169.43349014176136
13,498.0530377746454
14,1.5190593951041003
15,7.17439376099105
16,2.9440039061382778
17,0.5663855731399963
18,1.3758110860178317
2,1, 1, 1, 0,15, 0.00,15.00,Tuesday
7,-1.1
8,523.6699898898578
9,1.0
10,178.15692317953907
11,1.0
12,178.15692317953907
13,523.6699898898578
14,1.5665379050173765
15,7.987630529641907
16,3.1092849756212219
17,0.7252350006793904
18,1.3698741697353263
2,1, 1, 1, 0,15,15.00,30.00,Tuesday
7,-1.1
8,491.58097492069296
9,1.0
10,166.40516310952945
11,1.0
12,166.40516310952945
13,491.58097492069296
14,1.5349163147257774
15,7.624107411106067
16,2.9388231432219529
17,0.6253353668675459
18,1.3674179254685706
2,1, 1, 1, 0,15,30.00,45.00,Tuesday
7,-1.1
8,413.6647206704364
9,1.0
10,140.8967369711617
11,1.0
12,140.8967369711617
13,413.6647206704364
14,1.449360586884174
15,6.415873986542739
16,2.5021341690452347
17,0.3103599928140284
18,1.3587943930646123
2,1, 1, 1, 0,15,45.00,60.00,Tuesday
7,-1.1
8,339.73043609641595
9,1.0
10,116.57355796743004
11,1.0
12,116.57355796743004
13,339.73043609641595
14,1.3647830561013926
15,5.203529830336536
16,2.060433247436322
17,-0.012502170528023271
18,1.336692860972041
2,1, 1, 1, 0,16, 0.00,15.00,Tuesday
7,-1.1
8,269.1113538004406
9,1.0
10,93.14939272689483
11,1.0
12,93.14939272689483
13,269.1113538004406
14,1.2796324733833245
15,4.142171693281364
16,1.6513451031090654
17,-0.27262971997004117
18,1.3013648982646756
2,1, 1, 1, 0,16,15.00,30.00,Tuesday
7,-1.1
8,166.70785713612708
9,1.0
10,57.94047897402063
11,1.0
12,57.94047897402063
13,166.70785713612708
14,1.114535369048419
15,2.005854341485287
16,0.9652366138607249
17,-0.7626105352888999
18,1.2506428897498375
2,1, 1, 1, 0,16,30.00,45.00,Tuesday
7,-1.1
8,129.0197724326636
9,1.0
10,45.38251793443488
11,1.0
12,45.38251793443488
13,129.0197724326636
14,1.0653511871424418
15,1.3903883486028457
16,0.7129440866657433
17,-0.912494324895647
18,1.1911220276875763
2,1, 1, 1, 0,16,45.00,60.00,Tuesday
7,-1.1
8,89.93350146663998
9,1.0
10,32.02625108222755
11,1.0
12,32.02625108222755
13,89.93350146663998
14,0.9803981123360952
15,0.5143611347546785
16,0.45563337383828186
17,-1.0853231525551337
18,1.1284528813323754
2,1, 1, 1, 0,17, 0.00,15.00,Tuesday
7,-1.1
8,49.2880518103743
9,1.0
10,17.762198626050539
11,1.0
12,17.762198626050539
13,49.2880518103743
14,0.8661267218264165
15,-0.7534169000428463
16,0.11877445756363159
17,-1.3874037787459202
18,1.0600371921515944
2,1, 1, 1, 0,17,15.00,30.00,Tuesday
7,-1.1
8,0.0
9,0.0
10,0.0
11,0.0
12,0.0
13,0.0
14,0.7037800817267357
15,-2.597591994425511
16,-0.28775324613377509
17,-1.7534789940802967
18,0.9756226243338367
2,1, 1, 1, 0,17,30.00,45.00,Tuesday
7,-1.1
8,0.0
9,0.0
10,0.0
11,0.0
12,0.0
13,0.0
14,0.6635852434697027
15,-2.740067756162702
16,-0.36753545647434296
17,-1.8162328232810979
18,0.8859192312153764
2,1, 1, 1, 0,17,45.00,60.00,Tuesday
7,-1.1
8,0.0
9,0.0
10,0.0
11,0.0
12,0.0
13,0.0
14,0.6067307334559696
15,-2.944219488875058
16,-0.42452808805740008
17,-1.878192452061171
18,0.8074907896710745
2,1, 1, 1, 0,18, 0.00,15.00,Tuesday
7,-1.25
8,0.0
9,0.0
10,0.0
11,0.0
12,0.0
13,0.0
14,0.5603316531128515
15,-3.0904314180559537
16,-0.512904616747619
17,-2.0067396890979127
18,0.7450706582167003
2,1, 1, 1, 0,18,15.00,30.00,Tuesday
7,-1.4
8,0.0
9,0.0
10,0.0
11,0.0
12,0.0
13,0.0
14,0.5184313326201341
15,-3.242818059972819
16,-0.5895157802142421
17,-2.125711836813082
18,0.6958780952758681
2,1, 1, 1, 0,18,30.00,45.00,Tuesday
7,-1.5499999999999999
8,0.0
9,0.0
10,0.0
11,0.0
12,0.0
13,0.0
14,0.48199092981267507
15,-3.394491797998981
16,-0.6625385152779018
17,-2.2434050423619285
18,0.6553880073245313
2,1, 1, 1, 0,18,45.00,60.00,Tuesday
7,-1.7
8,0.0
9,0.0
10,0.0
11,0.0
12,0.0
13,0.0
14,0.4470560256193736
15,-3.546412808611297
16,-0.7322392178714381
17,-2.3595176034909857
18,0.6199451815050259
2,1, 1, 1, 0,19, 0.00,15.00,Tuesday
7,-1.825
8,0.0
9,0.0
10,0.0
11,0.0
12,0.0
13,0.0
14,0.44114569377171078
15,-3.379027805228836
16,-0.7614023656158224
17,-2.3906024838468058
18,0.5910970512705998
2,1, 1, 1, 0,19,15.00,30.00,Tuesday
7,-1.9500000000000002
8,0.0
9,0.0
10,0.0
11,0.0
12,0.0
13,0.0
14,0.4361306533965825
15,-3.295384115956507
16,-0.7924840247385419
17,-2.4378864112096609
18,0.5703130921502909
2,1, 1, 1, 0,19,30.00,45.00,Tuesday
7,-2.075
8,0.0
9,0.0
10,0.0
11,0.0
12,0.0
13,0.0
14,0.4239416538678227
15,-3.3646736450452696
16,-0.8356015714416571
17,-2.5177238811558597
18,0.555688272323638
2,1, 1, 1, 0,19,45.00,60.00,Tuesday
7,-2.2
8,0.0
9,0.0
10,0.0
11,0.0
12,0.0
13,0.0
14,0.4159379279408005
15,-3.327436512281249
16,-0.8677242531114189
17,-2.579877095653501
18,0.5441992672727648
2,1, 1, 1, 0,20, 0.00,15.00,Tuesday
7,-1.9250000000000003
8,0.0
9,0.0
10,0.0
11,0.0
12,0.0
13,0.0
14,0.4240377072874557
15,-3.0224596285274
16,-0.7668477061512817
17,-2.383827304029637
18,0.5361386084577218
2,1, 1, 1, 0,20,15.00,30.00,Tuesday
7,-1.6500000000000002
8,0.0
9,0.0
10,0.0
11,0.0
12,0.0
13,0.0
14,0.4335243607942736
15,-2.7208292914465219
16,-0.6776044458463844
17,-2.1606275821638407
18,0.5317566061097762
2,1, 1, 1, 0,20,30.00,45.00,Tuesday
7,-1.375
8,0.0
9,0.0
10,0.0
11,0.0
12,0.0
13,0.0
14,0.4454740613812688
15,-2.420678698563682
16,-0.5813823578573079
17,-1.9424210367342312
18,0.5306877523695212
2,1, 1, 1, 0,20,45.00,60.00,Tuesday
7,-1.1
8,0.0
9,0.0
10,0.0
11,0.0
12,0.0
13,0.0
14,0.45884071443861088
15,-2.1219604675082608
16,-0.4821550917532704
17,-1.7220823147787315
18,0.5322257928677477
2,1, 1, 1, 0,21, 0.00,15.00,Tuesday
7,-1.25
8,0.0
9,0.0
10,0.0
11,0.0
12,0.0
13,0.0
14,0.42459179330717869
15,-2.4187924614076987
16,-0.5605768494403947
17,-1.8638413051380667
18,0.5297502986081352
2,1, 1, 1, 0,21,15.00,30.00,Tuesday
7,-1.4
8,0.0
9,0.0
10,0.0
11,0.0
12,0.0
13,0.0
14,0.3896554578825983
15,-2.6435084943961595
16,-0.6286456033763557
17,-1.9927633471744458
18,0.5181169082110032
2,1, 1, 1, 0,21,30.00,45.00,Tuesday
7,-1.5499999999999999
8,0.0
9,0.0
10,0.0
11,0.0
12,0.0
13,0.0
14,0.34048568960753336
15,-3.0080598361752934
16,-0.7141414728755535
17,-2.151315668538018
18,0.4954370692021499
2,1, 1, 1, 0,21,45.00,60.00,Tuesday
7,-1.7
8,0.0
9,0.0
10,0.0
11,0.0
12,0.0
13,0.0
14,0.2863041881944189
15,-3.4828562880003979
16,-0.8118814578921842
17,-2.3362194112230556
18,0.46316009883041905
2,1, 1, 1, 0,22, 0.00,15.00,Tuesday
7,-1.5499999999999999
8,0.0
9,0.0
10,0.0
11,0.0
12,0.0
13,0.0
14,0.31020996959681487
15,-2.96797117042068
16,-0.7471839755631322
17,-2.175236788441964
18,0.43552295117259068
2,1, 1, 1, 0,22,15.00,30.00,Tuesday
7,-1.4
8,0.0
9,0.0
10,0.0
11,0.0
12,0.0
13,0.0
14,0.32587248736690829
15,-2.619314416964097
16,-0.6758414983050898
17,-2.017224754684321
18,0.4207051326977209
2,1, 1, 1, 0,22,30.00,45.00,Tuesday
7,-1.25
8,0.0
9,0.0
10,0.0
11,0.0
12,0.0
13,0.0
14,0.3374102955812038
15,-2.390911500594388
16,-0.6167950239498623
17,-1.8854488309278282
18,0.41704810835158387
2,1, 1, 1, 0,22,45.00,60.00,Tuesday
7,-1.1
8,0.0
9,0.0
10,0.0
11,0.0
12,0.0
13,0.0
14,0.3548892419903585
15,-2.093311061971901
16,-0.5407160306844503
17,-1.7270331614406587
18,0.4199576156768931
2,1, 1, 1, 0,23, 0.00,15.00,Tuesday
7,-1.25
8,0.0
9,0.0
10,0.0
11,0.0
12,0.0
13,0.0
14,0.31957504152231089
15,-2.397514226977338
16,-0.6665646805000733
17,-1.9709782798030347
18,0.4193248704461872
2,1, 1, 1, 0,23,15.00,30.00,Tuesday
7,-1.4
8,0.0
9,0.0
10,0.0
11,0.0
12,0.0
13,0.0
14,0.2857955149343267
15,-2.702014703196194
16,-0.7969298029192942
17,-2.2354844137810234
18,0.40900622627337615
2,1, 1, 1, 0,23,30.00,45.00,Tuesday
7,-1.5499999999999999
8,0.0
9,0.0
10,0.0
11,0.0
12,0.0
13,0.0
14,0.24878996715588617
15,-3.00709066235777
16,-0.9276276384368885
17,-2.500656472178548
18,0.3889260167957553
2,1, 1, 1, 0,23,45.00,60.00,Tuesday
7,-1.7
8,0.0
9,0.0
10,0.0
11,0.0
12,0.0
13,0.0
14,0.20817143727950133
15,-3.31254036113459
16,-1.0608303079786766
17,-2.766713259879566
18,0.36149235872175647
2,1, 1, 1, 0,24, 0.00,15.00,Tuesday
7,-1.7
8,0.0
9,0.0
10,0.0
11,0.0
12,0.0
13,0.0
14,0.18664917102589854
15,-3.3660889882958067
16,-1.0999515537210983
17,-2.824018168412067
18,0.33247415671161037
2,1, 1, 1, 0,24,15.00,30.00,Tuesday
7,-1.7
8,0.0
9,0.0
10,0.0
11,0.0
12,0.0
13,0.0
14,0.16198975080779744
15,-3.42053824649193
16,-1.1369673847786999
17,-2.8789461035038359
18,0.30531491936179319
2,1, 1, 1, 0,24,30.00,45.00,Tuesday
7,-1.7
8,0.0
9,0.0
10,0.0
11,0.0
12,0.0
13,0.0
14,0.13792979457079225
15,-3.47484421080502
16,-1.1746224668530659
17,-2.933999553391061
18,0.28044718929302939
2,1, 1, 1, 0,24,45.00,60.00,Tuesday
7,-1.7
8,0.0
9,0.0
10,0.0
11,0.0
12,0.0
13,0.0
14,0.11446358368071996
15,-3.529146278071823
16,-1.211729578124789
17,-2.988756397481552
18,0.25710970134709995
End of Data
 Number of Records Written=        1152
