Program Version,EnergyPlus, Version 9.5.0-de239b2e5f, YMD=2023.02.17 15:26
1,5,Environment Title[],Latitude[deg],Longitude[deg],Time Zone[],Elevation[m]
2,8,Day of Simulation[],Month[],Day of Month[],DST Indicator[1=yes 0=no],Hour[],StartMinute[],EndMinute[],DayType
3,5,Cumulative Day of Simulation[],Month[],Day of Month[],DST Indicator[1=yes 0=no],DayType  ! When Daily Report Variables Requested
4,2,Cumulative Days of Simulation[],Month[]  ! When Monthly Report Variables Requested
5,1,Cumulative Days of Simulation[] ! When Run Period Report Variables Requested
6,1,Calendar Year of Simulation[] ! When Annual Report Variables Requested
7,1,Environment,Site Outdoor Air Drybulb Temperature [C] !TimeStep
8,1,ZONE ONE,Zone Windows Total Transmitted Solar Radiation Rate [W] !TimeStep
9,1,ZN001:WALL001,Surface Outside Face Sunlit Fraction [] !TimeStep
10,1,ZN001:WALL001,Surface Outside Face Incident Solar Radiation Rate per Area [W/m2] !TimeStep
11,1,ZN001:WALL001:WIN001,Surface Outside Face Sunlit Fraction [] !TimeStep
12,1,ZN001:WALL001:WIN001,Surface Outside Face Incident Solar Radiation Rate per Area [W/m2] !TimeStep
13,1,ZN001:WALL001:WIN001,Surface Window Transmitted Solar Radiation Rate [W] !TimeStep
14,1,ZN001:WALL001,Surface Inside Face Temperature [C] !TimeStep
15,1,ZN001:WALL001,Surface Outside Face Temperature [C] !TimeStep
16,1,ZN001:WALL001:WIN001,Surface Inside Face Temperature [C] !TimeStep
17,1,ZN001:WALL001:WIN001,Surface Outside Face Temperature [C] !TimeStep
18,1,ZONE ONE,Zone Mean Air Temperature [C] !TimeStep
End of Data Dictionary
1,RUN PERIOD 1,  41.98, -87.92,  -6.00, 201.00
2,1, 1, 1, 0, 1, 0.00,15.00,Tuesday
7,-4.324999999999999
8,0.0
9,0.0
10,0.0
11,0.0
12,0.0
13,0.0
14,1.6098617687098123
15,-5.9747589188580749
16,-0.8542102651101118
17,-4.440610308526232
18,1.9471655921068619
2,1, 1, 1, 0, 1,15.00,30.00,Tuesday
7,-6.949999999999999
8,0.0
9,0.0
10,0.0
11,0.0
12,0.0
13,0.0
14,1.4290644862570264
15,-8.442732685714699
16,-1.7233414615307652
17,-6.3392523873616259
18,1.8527273369486437
2,1, 1, 1, 0, 1,30.00,45.00,Tuesday
7,-9.575
8,0.0
9,0.0
10,0.0
11,0.0
12,0.0
13,0.0
14,1.2235068199830013
15,-10.919345576407926
16,-2.5946598493306398
17,-8.243989899833423
18,1.7212216037923026
2,1, 1, 1, 0, 1,45.00,60.00,Tuesday
7,-12.2
8,0.0
9,0.0
10,0.0
11,0.0
12,0.0
13,0.0
14,1.0015380968648043
15,-13.402426993349787
16,-3.4797782649152397
17,-10.157995586024527
18,1.5633783792509984
2,1, 1, 1, 0, 2, 0.00,15.00,Tuesday
7,-12.075
8,0.0
9,0.0
10,0.0
11,0.0
12,0.0
13,0.0
14,0.9391980214592568
15,-13.204252385766785
16,-3.497990309310012
17,-10.04178869443814
18,1.4222077765189616
2,1, 1, 1, 0, 2,15.00,30.00,Tuesday
7,-11.95
8,0.0
9,0.0
10,0.0
11,0.0
12,0.0
13,0.0
14,0.8615396482035606
15,-13.027087499768817
16,-3.5000453051990805
17,-9.919768559557838
18,1.3171448252843659
2,1, 1, 1, 0, 2,30.00,45.00,Tuesday
7,-11.825
8,0.0
9,0.0
10,0.0
11,0.0
12,0.0
13,0.0
14,0.8031405891462073
15,-12.848599474500985
16,-3.496178402113401
17,-9.796159637558162
18,1.2425523151261014
2,1, 1, 1, 0, 2,45.00,60.00,Tuesday
7,-11.7
8,0.0
9,0.0
10,0.0
11,0.0
12,0.0
13,0.0
14,0.7573880475577822
15,-12.670179326612568
16,-3.479643207676986
17,-9.66778988566034
18,1.18622117664881
2,1, 1, 1, 0, 3, 0.00,15.00,Tuesday
7,-11.549999999999999
8,0.0
9,0.0
10,0.0
11,0.0
12,0.0
13,0.0
14,0.7139371671188992
15,-12.54589772226049
16,-3.4534164520110837
17,-9.533320756658782
18,1.1381535825941079
2,1, 1, 1, 0, 3,15.00,30.00,Tuesday
7,-11.399999999999999
8,0.0
9,0.0
10,0.0
11,0.0
12,0.0
13,0.0
14,0.6742790191988276
15,-12.423063403640257
16,-3.425054888803629
17,-9.398521646462314
18,1.0932437975485987
2,1, 1, 1, 0, 3,30.00,45.00,Tuesday
7,-11.25
8,0.0
9,0.0
10,0.0
11,0.0
12,0.0
13,0.0
14,0.6358364855137721
15,-12.301848711341446
16,-3.394912725210645
17,-9.263535626252179
18,1.049818459842698
2,1, 1, 1, 0, 3,45.00,60.00,Tuesday
7,-11.1
8,0.0
9,0.0
10,0.0
11,0.0
12,0.0
13,0.0
14,0.5980931602316825
15,-12.182312644799142
16,-3.364117921587763
17,-9.128838589533644
18,1.0075205094142297
2,1, 1, 1, 0, 4, 0.00,15.00,Tuesday
7,-11.1
8,0.0
9,0.0
10,0.0
11,0.0
12,0.0
13,0.0
14,0.5563949296204319
15,-12.15143942162708
16,-3.415868539241046
17,-9.161409660329582
18,0.9649576772185519
2,1, 1, 1, 0, 4,15.00,30.00,Tuesday
7,-11.1
8,0.0
9,0.0
10,0.0
11,0.0
12,0.0
13,0.0
14,0.5150352101948564
15,-12.121774871276339
16,-3.459889832882368
17,-9.2004018186052
18,0.921619046376785
2,1, 1, 1, 0, 4,30.00,45.00,Tuesday
7,-11.1
8,0.0
9,0.0
10,0.0
11,0.0
12,0.0
13,0.0
14,0.4733409330054509
15,-12.093762365138682
16,-3.5026363564692248
17,-9.239544569382645
18,0.8777009375920515
2,1, 1, 1, 0, 4,45.00,60.00,Tuesday
7,-11.1
8,0.0
9,0.0
10,0.0
11,0.0
12,0.0
13,0.0
14,0.4314481724723027
15,-12.067262430636737
16,-3.545006305888478
17,-9.277903584719525
18,0.8335381767837646
2,1, 1, 1, 0, 5, 0.00,15.00,Tuesday
7,-10.975
8,0.0
9,0.0
10,0.0
11,0.0
12,0.0
13,0.0
14,0.3955432805246499
15,-11.945068877874954
16,-3.530672554556304
17,-9.202862642589992
18,0.7906481761331938
2,1, 1, 1, 0, 5,15.00,30.00,Tuesday
7,-10.85
8,0.0
9,0.0
10,0.0
11,0.0
12,0.0
13,0.0
14,0.3599133485107451
15,-11.822966272318949
16,-3.5192685264445915
17,-9.120577767787495
18,0.7496390056959388
2,1, 1, 1, 0, 5,30.00,45.00,Tuesday
7,-10.725
8,0.0
9,0.0
10,0.0
11,0.0
12,0.0
13,0.0
14,0.3254125705426197
15,-11.700838345926531
16,-3.5078463985205987
17,-9.03715847374474
18,0.7102453402877229
2,1, 1, 1, 0, 5,45.00,60.00,Tuesday
7,-10.6
8,0.0
9,0.0
10,0.0
11,0.0
12,0.0
13,0.0
14,0.291861380894501
15,-11.578718966226468
16,-3.495690689299181
17,-8.953321097607614
18,0.6720059049787792
2,1, 1, 1, 0, 6, 0.00,15.00,Tuesday
7,-10.6
8,0.0
9,0.0
10,0.0
11,0.0
12,0.0
13,0.0
14,0.2508414386997119
15,-11.579565185934263
16,-3.522763236042465
17,-8.959197602702261
18,0.6331955881654936
2,1, 1, 1, 0, 6,15.00,30.00,Tuesday
7,-10.6
8,0.0
9,0.0
10,0.0
11,0.0
12,0.0
13,0.0
14,0.2104308346376383
15,-11.580318887475574
16,-3.5519556711410589
17,-8.96850260826136
18,0.5929302736001205
2,1, 1, 1, 0, 6,30.00,45.00,Tuesday
7,-10.6
8,0.0
9,0.0
10,0.0
11,0.0
12,0.0
13,0.0
14,0.16944889616825743
15,-11.581118683912682
16,-3.5812242662207156
17,-8.978556726996317
18,0.5514236611588079
2,1, 1, 1, 0, 6,45.00,60.00,Tuesday
7,-10.6
8,0.0
9,0.0
10,0.0
11,0.0
12,0.0
13,0.0
14,0.1280801745073676
15,-11.581918822323244
16,-3.610767348710567
17,-8.988984422176486
18,0.5092220065012041
2,1, 1, 1, 0, 7, 0.00,15.00,Tuesday
7,-10.6
8,0.0
9,0.0
10,0.0
11,0.0
12,0.0
13,0.0
14,0.08873330158015
15,-11.556456427882308
16,-3.6556439597858345
17,-9.020409758567439
18,0.46688382428028898
2,1, 1, 1, 0, 7,15.00,30.00,Tuesday
7,-10.6
8,0.0
9,0.0
10,0.0
11,0.0
12,0.0
13,0.0
14,0.04917978485900732
15,-11.532322219763002
16,-3.6947671669616399
17,-9.052792842477175
18,0.4248573592983904
2,1, 1, 1, 0, 7,30.00,45.00,Tuesday
7,-10.6
8,0.0
9,0.0
10,0.0
11,0.0
12,0.0
13,0.0
14,0.009818253408050999
15,-11.509409073796224
16,-3.7330491716368217
17,-9.084814421077454
18,0.38324153902831117
2,1, 1, 1, 0, 7,45.00,60.00,Tuesday
7,-10.6
8,0.0
9,0.0
10,0.0
11,0.0
12,0.0
13,0.0
14,-0.02928467751906884
15,-11.487644915511498
16,-3.7707231889148717
17,-9.115981389589763
18,0.34197876208239288
2,1, 1, 1, 0, 8, 0.00,15.00,Tuesday
7,-10.45
8,0.0
9,0.0
10,0.0
11,0.0
12,0.0
13,0.0
14,-0.06903800992072348
15,-11.440035589245796
16,-3.7683760514300959
17,-9.06811947017917
18,0.3009498126352922
2,1, 1, 1, 0, 8,15.00,30.00,Tuesday
7,-10.3
8,93.05655358355645
9,1.0
10,22.819555959623899
11,1.0
12,22.819555959623899
13,93.05655358355645
14,0.0021421126433313478
15,-9.767052621627287
16,-3.3496278916697976
17,-8.647760279796046
18,0.2761695360957849
2,1, 1, 1, 0, 8,30.00,45.00,Tuesday
7,-10.15
8,457.6558068976325
9,1.0
10,109.75755355442667
11,1.0
12,109.75755355442667
13,457.6558068976325
14,0.3763387100240432
15,-3.4073064094361964
16,-1.69389382876318
17,-7.180311036643502
18,0.31142480119702928
2,1, 1, 1, 0, 8,45.00,60.00,Tuesday
7,-10.0
8,834.7083798112577
9,1.0
10,195.8764694434918
11,1.0
12,195.8764694434918
13,834.7083798112577
14,0.8372753647796958
15,3.0806355786905685
16,0.055394278227993257
17,-5.704689666448587
18,0.4125092193577625
2,1, 1, 1, 0, 9, 0.00,15.00,Tuesday
7,-9.725
8,1213.0424691673657
9,1.0
10,278.97248314719988
11,1.0
12,278.97248314719988
13,1213.0424691673657
14,1.1971413950761949
15,8.265739881511897
16,1.7448560919935972
17,-4.39758983127183
18,0.5599893475504369
2,1, 1, 1, 0, 9,15.00,30.00,Tuesday
7,-9.45
8,1614.6596458019777
9,1.0
10,364.91995730569456
11,1.0
12,364.91995730569456
13,1614.6596458019777
14,1.5813730093216714
15,13.346765893472738
16,3.3592555402412929
17,-3.130914307019907
18,0.7471288581396631
2,1, 1, 1, 0, 9,30.00,45.00,Tuesday
7,-9.175
8,1884.2599245450097
9,1.0
10,420.35879993239237
11,1.0
12,420.35879993239237
13,1884.2599245450097
14,1.8482217920586975
15,16.106707967145256
16,4.390130677860384
17,-2.3527835965137458
18,0.9548301222863302
2,1, 1, 1, 0, 9,45.00,60.00,Tuesday
7,-8.9
8,2165.580052602723
9,1.0
10,478.00138373643099
11,1.0
12,478.00138373643099
13,2165.580052602723
14,2.161137391593201
15,19.102507206931106
16,5.433899411843015
17,-1.5565870106511853
18,1.1740582073294288
2,1, 1, 1, 0,10, 0.00,15.00,Tuesday
7,-8.350000000000002
8,2454.3103898650085
9,1.0
10,536.9185644770597
11,1.0
12,536.9185644770597
13,2454.3103898650085
14,2.4152438077317037
15,20.2234255532946
16,6.4694019693508839
17,-0.8118019852850011
18,1.4061153879480304
2,1, 1, 1, 0,10,15.00,30.00,Tuesday
7,-7.800000000000001
8,2754.195489731118
9,1.0
10,598.0969199229219
11,1.0
12,598.0969199229219
13,2754.195489731118
14,2.693819423842817
15,21.478855036494257
16,7.521849959807582
17,-0.06884223041606674
18,1.6575783070460358
2,1, 1, 1, 0,10,30.00,45.00,Tuesday
7,-7.25
8,2954.4957344842507
9,1.0
10,637.6133352894237
11,1.0
12,637.6133352894237
13,2954.4957344842507
14,2.904263694581334
15,21.540875664990926
16,8.238757471115378
17,0.40799742335980229
18,1.9140164327032834
2,1, 1, 1, 0,10,45.00,60.00,Tuesday
7,-6.7
8,3152.384503655079
9,1.0
10,676.6412284283772
11,1.0
12,676.6412284283772
13,3152.384503655079
14,3.1336053041425755
15,21.702894050555039
16,8.935490758246829
17,0.8810240196754648
18,2.16457193330026
2,1, 1, 1, 0,11, 0.00,15.00,Tuesday
7,-6.275
8,3346.9823591773949
9,1.0
10,715.0112779846514
11,1.0
12,715.0112779846514
13,3346.9823591773949
14,3.4404991472449177
15,23.800311910873693
16,9.73715441252483
17,1.647366912330824
18,2.4130646134211566
2,1, 1, 1, 0,11,15.00,30.00,Tuesday
7,-5.85
8,3537.0739759815935
9,1.0
10,752.5077794605232
11,1.0
12,752.5077794605232
13,3537.0739759815935
14,3.7342836801316436
15,25.735368566605005
16,10.521447294408347
17,2.3947514729363776
18,2.6645369033664076
2,1, 1, 1, 0,11,30.00,45.00,Tuesday
7,-5.425
8,3486.3549214294764
9,1.0
10,742.5988714321785
11,1.0
12,742.5988714321785
13,3486.3549214294764
14,3.9022175327705197
15,25.587317828631134
16,10.642461874356627
17,2.6436422808815225
18,2.9024129434190955
2,1, 1, 1, 0,11,45.00,60.00,Tuesday
7,-5.0
8,3410.7994498435948
9,1.0
10,727.8169025450712
11,1.0
12,727.8169025450712
13,3410.7994498435948
14,4.066351428152922
15,25.357941339348419
16,10.678081693835566
17,2.850682922921635
18,3.114858403675328
2,1, 1, 1, 0,12, 0.00,15.00,Tuesday
7,-4.575
8,3278.643045900458
9,1.0
10,700.3759009170325
11,1.0
12,700.3759009170325
13,3278.643045900458
14,4.178399861873434
15,24.61521007238622
16,10.543723274449576
17,2.9655332670952818
18,3.295919767669475
2,1, 1, 1, 0,12,15.00,30.00,Tuesday
7,-4.15
8,3178.532288203043
9,1.0
10,681.6705029034473
11,1.0
12,681.6705029034473
13,3178.532288203043
14,4.3101301489128
15,24.284587383525847
16,10.523754892424563
17,3.1729085874848126
18,3.4531368112484799
2,1, 1, 1, 0,12,30.00,45.00,Tuesday
7,-3.7249999999999998
8,2787.510954562938
9,1.0
10,602.01865277251
11,1.0
12,602.01865277251
13,2787.510954562938
14,4.22607950995603
15,21.256264807705116
16,9.63997675576627
17,2.7593893744731305
18,3.5668488210801398
2,1, 1, 1, 0,12,45.00,60.00,Tuesday
7,-3.3
8,2274.693096093222
9,1.0
10,493.55004396206007
11,1.0
12,493.55004396206007
13,2274.693096093222
14,4.044911370672092
15,17.07761854370005
16,8.256425547908862
17,2.0104853110576075
18,3.6161851360539889
2,1, 1, 1, 0,13, 0.00,15.00,Tuesday
7,-3.0249999999999996
8,1872.7821239047929
9,1.0
10,412.335026418112
11,1.0
12,412.335026418112
13,1872.7821239047929
14,3.9180069238202255
15,14.232743632082697
16,7.208988783506584
17,1.5035200830858458
18,3.614855948100313
2,1, 1, 1, 0,13,15.00,30.00,Tuesday
7,-2.75
8,1367.06607109172
9,1.0
10,305.94037763660148
11,1.0
12,305.94037763660148
13,1367.06607109172
14,3.6485620555473705
15,10.059369858941507
16,5.7193443499213
17,0.6787786141619563
18,3.5716072654011219
2,1, 1, 1, 0,13,30.00,45.00,Tuesday
7,-2.475
8,1245.7174943252294
9,1.0
10,281.0763483922329
11,1.0
12,281.0763483922329
13,1245.7174943252294
14,3.633174751730059
15,9.546007320337802
16,5.4343279700084399
17,0.7233571415099505
18,3.518313176390035
2,1, 1, 1, 0,13,45.00,60.00,Tuesday
7,-2.2
8,1126.9065105399337
9,1.0
10,256.7721209415886
11,1.0
12,256.7721209415886
13,1126.9065105399337
14,3.6032384361674136
15,8.938485489921936
16,5.197643645761161
17,0.7866394528748515
18,3.4729525698627299
2,1, 1, 1, 0,14, 0.00,15.00,Tuesday
7,-1.9250000000000003
8,919.070031690966
9,1.0
10,210.73276284570657
11,1.0
12,210.73276284570657
13,919.070031690966
14,3.49326281455601
15,7.390233413774443
16,4.581543238266647
17,0.5685899628402922
18,3.433003364865687
2,1, 1, 1, 0,14,15.00,30.00,Tuesday
7,-1.6500000000000002
8,814.001101350858
9,1.0
10,189.38488290342594
11,1.0
12,189.38488290342594
13,814.001101350858
14,3.4689209263334166
15,6.98339296912582
16,4.347073628920668
17,0.6199605923352465
18,3.398650766404761
2,1, 1, 1, 0,14,30.00,45.00,Tuesday
7,-1.375
8,776.7255076603376
9,1.0
10,179.3940297802914
11,1.0
12,179.3940297802914
13,776.7255076603376
14,3.4699662849586394
15,7.103521647302145
16,4.312188396331976
17,0.8055122827375953
18,3.3721864586352998
2,1, 1, 1, 0,14,45.00,60.00,Tuesday
7,-1.1
8,738.680308524697
9,1.0
10,169.43349014176136
11,1.0
12,169.43349014176136
13,738.680308524697
14,3.4684892529949389
15,7.200841882762841
16,4.274142317772657
17,0.9873742114884863
18,3.353452987703446
2,1, 1, 1, 0,15, 0.00,15.00,Tuesday
7,-1.1
8,776.6737282144568
9,1.0
10,178.15692317953907
11,1.0
12,178.15692317953907
13,776.6737282144568
14,3.5204546286449358
15,8.015212407543095
16,4.447376771719064
17,1.1572628207034086
18,3.3446572727683425
2,1, 1, 1, 0,15,15.00,30.00,Tuesday
7,-1.1
8,729.0813601735297
9,1.0
10,166.40516310952945
11,1.0
12,166.40516310952945
13,729.0813601735297
14,3.482654905002501
15,7.652232231805166
16,4.27454349813172
17,1.0636340320711498
18,3.3395016679688158
2,1, 1, 1, 0,15,30.00,45.00,Tuesday
7,-1.1
8,613.5209712923864
9,1.0
10,140.8967369711617
11,1.0
12,140.8967369711617
13,613.5209712923864
14,3.3862170289278215
15,6.44472194978449
16,3.8270300669186669
17,0.7552928455776851
18,3.327871597729581
2,1, 1, 1, 0,15,45.00,60.00,Tuesday
7,-1.1
8,503.86638433571127
9,1.0
10,116.57355796743004
11,1.0
12,116.57355796743004
13,503.86638433571127
14,3.289396263705204
15,5.233045182959455
16,3.3627590294863696
17,0.4352784686058726
18,3.3023039162584917
2,1, 1, 1, 0,16, 0.00,15.00,Tuesday
7,-1.1
8,399.1286926810121
9,1.0
10,93.14939272689483
11,1.0
12,93.14939272689483
13,399.1286926810121
14,3.1891846776708836
15,4.172741459519646
16,2.9381041610300828
17,0.18721201206625438
18,3.2626846350531308
2,1, 1, 1, 0,16,15.00,30.00,Tuesday
7,-1.1
8,247.25039705212277
9,1.0
10,57.94047897402063
11,1.0
12,57.94047897402063
13,247.25039705212277
14,3.021859857220515
15,2.045374711719565
16,2.2864850079271834
17,-0.2697601737667128
18,3.203407059723708
2,1, 1, 1, 0,16,30.00,45.00,Tuesday
7,-1.1
8,191.3538480402952
9,1.0
10,45.38251793443488
11,1.0
12,45.38251793443488
13,191.3538480402952
14,2.962614904516208
15,1.4287795808395392
16,2.0490398415713004
17,-0.3948429339276345
18,3.132404823418358
2,1, 1, 1, 0,16,45.00,60.00,Tuesday
7,-1.1
8,133.3835988771441
9,1.0
10,32.02625108222755
11,1.0
12,32.02625108222755
13,133.3835988771441
14,2.86807025221957
15,0.5570524685097696
16,1.8040210372503225
17,-0.5379959886709003
18,3.056974256852773
2,1, 1, 1, 0,17, 0.00,15.00,Tuesday
7,-1.1
8,73.10087592385708
9,1.0
10,17.762198626050539
11,1.0
12,17.762198626050539
13,73.10087592385708
14,2.743874246590098
15,-0.7055975695550109
16,1.481776003816094
17,-0.7995192628311543
18,2.9744467997660526
2,1, 1, 1, 0,17,15.00,30.00,Tuesday
7,-1.1
8,0.0
9,0.0
10,0.0
11,0.0
12,0.0
13,0.0
14,2.5696477075694275
15,-2.5479132095878849
16,1.0650722658416499
17,-1.1762247299067213
18,2.87720907268047
2,1, 1, 1, 0,17,30.00,45.00,Tuesday
7,-1.1
8,0.0
9,0.0
10,0.0
11,0.0
12,0.0
13,0.0
14,2.521888128373295
15,-2.6884380839447057
16,0.988299171958829
17,-1.2202495010760686
18,2.7813571252278708
2,1, 1, 1, 0,17,45.00,60.00,Tuesday
7,-1.1
8,0.0
9,0.0
10,0.0
11,0.0
12,0.0
13,0.0
14,2.4592504970442969
15,-2.888465046574846
16,0.9416549143820703
17,-1.250195744589746
18,2.700840487620959
2,1, 1, 1, 0,18, 0.00,15.00,Tuesday
7,-1.25
8,0.0
9,0.0
10,0.0
11,0.0
12,0.0
13,0.0
14,2.4081838354395495
15,-3.0351428990919935
16,0.8509643921294128
17,-1.3790150295893682
18,2.6373945422660025
2,1, 1, 1, 0,18,15.00,30.00,Tuesday
7,-1.4
8,0.0
9,0.0
10,0.0
11,0.0
12,0.0
13,0.0
14,2.362026951714368
15,-3.1875349222629527
16,0.76964641135379
17,-1.495221055539048
18,2.586614599573964
2,1, 1, 1, 0,18,30.00,45.00,Tuesday
7,-1.5499999999999999
8,0.0
9,0.0
10,0.0
11,0.0
12,0.0
13,0.0
14,2.320295648477567
15,-3.339311014881727
16,0.6983743460478422
17,-1.6055672969315538
18,2.543442311805878
2,1, 1, 1, 0,18,45.00,60.00,Tuesday
7,-1.7
8,0.0
9,0.0
10,0.0
11,0.0
12,0.0
13,0.0
14,2.2808186146365667
15,-3.4912591784863018
16,0.6288122327226802
17,-1.71679172805716
18,2.504373171984439
2,1, 1, 1, 0,19, 0.00,15.00,Tuesday
7,-1.825
8,0.0
9,0.0
10,0.0
11,0.0
12,0.0
13,0.0
14,2.2698633460084256
15,-3.330182373112959
16,0.5698293356468298
17,-1.8044724510347124
18,2.471137300735832
2,1, 1, 1, 0,19,15.00,30.00,Tuesday
7,-1.9500000000000002
8,0.0
9,0.0
10,0.0
11,0.0
12,0.0
13,0.0
14,2.2572063500290708
15,-3.2521607557606675
16,0.5154391061028605
17,-1.8979140652734259
18,2.4452449026677369
2,1, 1, 1, 0,19,30.00,45.00,Tuesday
7,-2.075
8,0.0
9,0.0
10,0.0
11,0.0
12,0.0
13,0.0
14,2.2394569627011124
15,-3.322905441869171
16,0.46539788101836168
17,-1.9909243271641799
18,2.425083416502973
2,1, 1, 1, 0,19,45.00,60.00,Tuesday
7,-2.2
8,0.0
9,0.0
10,0.0
11,0.0
12,0.0
13,0.0
14,2.223704413689861
15,-3.29066803343519
16,0.4123743957966326
17,-2.090232901496506
18,2.407497477712886
2,1, 1, 1, 0,20, 0.00,15.00,Tuesday
7,-1.9250000000000003
8,0.0
9,0.0
10,0.0
11,0.0
12,0.0
13,0.0
14,2.226927112552776
15,-2.9869428426184636
16,0.5015290123121758
17,-1.9099738560324795
18,2.393320250891722
2,1, 1, 1, 0,20,15.00,30.00,Tuesday
7,-1.6500000000000002
8,0.0
9,0.0
10,0.0
11,0.0
12,0.0
13,0.0
14,2.229893868791737
15,-2.686544039229605
16,0.5807277229280317
17,-1.6993274917784902
18,2.3830392347059825
2,1, 1, 1, 0,20,30.00,45.00,Tuesday
7,-1.375
8,0.0
9,0.0
10,0.0
11,0.0
12,0.0
13,0.0
14,2.2346550720503854
15,-2.387498579074322
16,0.6720161804652776
17,-1.501874677675687
18,2.376193164060082
2,1, 1, 1, 0,20,45.00,60.00,Tuesday
7,-1.1
8,0.0
9,0.0
10,0.0
11,0.0
12,0.0
13,0.0
14,2.2411221571934045
15,-2.089804040427581
16,0.7552129963592051
17,-1.2830466131347294
18,2.3718504242874167
2,1, 1, 1, 0,21, 0.00,15.00,Tuesday
7,-1.25
8,0.0
9,0.0
10,0.0
11,0.0
12,0.0
13,0.0
14,2.201428889506102
15,-2.381362684981674
16,0.6943312863918436
17,-1.3867697016976309
18,2.3629895226774959
2,1, 1, 1, 0,21,15.00,30.00,Tuesday
7,-1.4
8,0.0
9,0.0
10,0.0
11,0.0
12,0.0
13,0.0
14,2.1627188238716976
15,-2.6033690576664294
16,0.6321868297529818
17,-1.4950772040944003
18,2.3446011790094389
2,1, 1, 1, 0,21,30.00,45.00,Tuesday
7,-1.5499999999999999
8,0.0
9,0.0
10,0.0
11,0.0
12,0.0
13,0.0
14,2.1098956667663288
15,-2.9613113486130477
16,0.5680714430180842
17,-1.6043172510607065
18,2.315419448486157
2,1, 1, 1, 0,21,45.00,60.00,Tuesday
7,-1.7
8,0.0
9,0.0
10,0.0
11,0.0
12,0.0
13,0.0
14,2.051907114412389
15,-3.428696211597605
16,0.4996034316349096
17,-1.7135951156084275
18,2.2774302617224255
2,1, 1, 1, 0,22, 0.00,15.00,Tuesday
7,-1.5499999999999999
8,0.0
9,0.0
10,0.0
11,0.0
12,0.0
13,0.0
14,2.0679333927966474
15,-2.922791966390115
16,0.5187792208187148
17,-1.6323134536215776
18,2.2444184928513328
2,1, 1, 1, 0,22,15.00,30.00,Tuesday
7,-1.4
8,0.0
9,0.0
10,0.0
11,0.0
12,0.0
13,0.0
14,2.07561715942971
15,-2.580225386416153
16,0.5632043930626196
17,-1.5247613615679825
18,2.224292475222793
2,1, 1, 1, 0,22,30.00,45.00,Tuesday
7,-1.25
8,0.0
9,0.0
10,0.0
11,0.0
12,0.0
13,0.0
14,2.080868018959203
15,-2.354586988036615
16,0.6084950926985471
17,-1.4163785667489038
18,2.215344529404395
2,1, 1, 1, 0,22,45.00,60.00,Tuesday
7,-1.1
8,0.0
9,0.0
10,0.0
11,0.0
12,0.0
13,0.0
14,2.0899476350529464
15,-2.0620193319087805
16,0.6611259500620008
17,-1.2966829663089926
18,2.212629902624148
2,1, 1, 1, 0,23, 0.00,15.00,Tuesday
7,-1.25
8,0.0
9,0.0
10,0.0
11,0.0
12,0.0
13,0.0
14,2.049875773093117
15,-2.365812422152681
16,0.5360861056528847
17,-1.5430801693698869
18,2.2054554998194599
2,1, 1, 1, 0,23,15.00,30.00,Tuesday
7,-1.4
8,0.0
9,0.0
10,0.0
11,0.0
12,0.0
13,0.0
14,2.0119024701518635
15,-2.670369707485735
16,0.4047278021279226
17,-1.8087266446494824
18,2.18795710794887
2,1, 1, 1, 0,23,30.00,45.00,Tuesday
7,-1.5499999999999999
8,0.0
9,0.0
10,0.0
11,0.0
12,0.0
13,0.0
14,1.9698871734986883
15,-2.9755440055969406
16,0.2725967996864824
17,-2.075091241387554
18,2.160653756946692
2,1, 1, 1, 0,23,45.00,60.00,Tuesday
7,-1.7
8,0.0
9,0.0
10,0.0
11,0.0
12,0.0
13,0.0
14,1.9239751236632495
15,-3.2810739142455906
16,0.13747745381044752
17,-2.3424664656487268
18,2.126339640470711
2,1, 1, 1, 0,24, 0.00,15.00,Tuesday
7,-1.7
8,0.0
9,0.0
10,0.0
11,0.0
12,0.0
13,0.0
14,1.8965625014734778
15,-3.3348180761922645
16,0.0939611212742193
17,-2.4023150939514155
18,2.091033952128544
2,1, 1, 1, 0,24,15.00,30.00,Tuesday
7,-1.7
8,0.0
9,0.0
10,0.0
11,0.0
12,0.0
13,0.0
14,1.8659969462734445
15,-3.3893674139862
16,0.05284033680720768
17,-2.4591205722402948
18,2.058081085341024
2,1, 1, 1, 0,24,30.00,45.00,Tuesday
7,-1.7
8,0.0
9,0.0
10,0.0
11,0.0
12,0.0
13,0.0
14,1.836293399141627
15,-3.4437661831182528
16,0.011195515390795663
17,-2.5159384569194005
18,2.027670178757002
2,1, 1, 1, 0,24,45.00,60.00,Tuesday
7,-1.7
8,0.0
9,0.0
10,0.0
11,0.0
12,0.0
13,0.0
14,1.8073171414576935
15,-3.498164201502683
16,-0.029750313948682107
17,-2.572384241675195
18,1.9988562337306253
End of Data
 Number of Records Written=        1152
