Program Version,EnergyPlus, Version 9.5.0-de239b2e5f, YMD=2023.02.17 15:26
1,5,Environment Title[],Latitude[deg],Longitude[deg],Time Zone[],Elevation[m]
2,8,Day of Simulation[],Month[],Day of Month[],DST Indicator[1=yes 0=no],Hour[],StartMinute[],EndMinute[],DayType
3,5,Cumulative Day of Simulation[],Month[],Day of Month[],DST Indicator[1=yes 0=no],DayType  ! When Daily Report Variables Requested
4,2,Cumulative Days of Simulation[],Month[]  ! When Monthly Report Variables Requested
5,1,Cumulative Days of Simulation[] ! When Run Period Report Variables Requested
6,1,Calendar Year of Simulation[] ! When Annual Report Variables Requested
7,1,Environment,Site Outdoor Air Drybulb Temperature [C] !TimeStep
8,1,ZONE ONE,Zone Windows Total Transmitted Solar Radiation Rate [W] !TimeStep
9,1,ZN001:WALL001,Surface Outside Face Sunlit Fraction [] !TimeStep
10,1,ZN001:WALL001,Surface Outside Face Incident Solar Radiation Rate per Area [W/m2] !TimeStep
11,1,ZN001:WALL001:WIN001,Surface Outside Face Sunlit Fraction [] !TimeStep
12,1,ZN001:WALL001:WIN001,Surface Outside Face Incident Solar Radiation Rate per Area [W/m2] !TimeStep
13,1,ZN001:WALL001:WIN001,Surface Window Transmitted Solar Radiation Rate [W] !TimeStep
14,1,ZN001:WALL001,Surface Inside Face Temperature [C] !TimeStep
15,1,ZN001:WALL001,Surface Outside Face Temperature [C] !TimeStep
16,1,ZN001:WALL001:WIN001,Surface Inside Face Temperature [C] !TimeStep
17,1,ZN001:WALL001:WIN001,Surface Outside Face Temperature [C] !TimeStep
18,1,ZONE ONE,Zone Mean Air Temperature [C] !TimeStep
End of Data Dictionary
1,RUN PERIOD 1,  41.98, -87.92,  -6.00, 201.00
2,1, 1, 1, 0, 1, 0.00,15.00,Tuesday
7,-4.324999999999999
8,0.0
9,0.0
10,0.0
11,0.0
12,0.0
13,0.0
14,5.013074181758024
15,-5.912660348196182
16,1.5837940270459399
17,-3.578968045027807
18,5.431959371625077
2,1, 1, 1, 0, 1,15.00,30.00,Tuesday
7,-6.949999999999999
8,0.0
9,0.0
10,0.0
11,0.0
12,0.0
13,0.0
14,4.82535880352979
15,-8.380314555113755
16,0.7277654058677285
17,-5.477118681130037
18,5.324969824898999
2,1, 1, 1, 0, 1,30.00,45.00,Tuesday
7,-9.575
8,0.0
9,0.0
10,0.0
11,0.0
12,0.0
13,0.0
14,4.613908509472802
15,-10.856218901447859
16,-0.13379462629336559
17,-7.3811824210631589
18,5.182221291290584
2,1, 1, 1, 0, 1,45.00,60.00,Tuesday
7,-12.2
8,0.0
9,0.0
10,0.0
11,0.0
12,0.0
13,0.0
14,4.383930540885741
15,-13.338692047126502
16,-1.0101664103544863
17,-9.294021526729239
18,5.014685017045255
2,1, 1, 1, 0, 2, 0.00,15.00,Tuesday
7,-12.075
8,0.0
9,0.0
10,0.0
11,0.0
12,0.0
13,0.0
14,4.309835331916589
15,-13.139969811652483
16,-1.0401698849408377
17,-9.16193445558224
18,4.865244494434595
2,1, 1, 1, 0, 2,15.00,30.00,Tuesday
7,-11.95
8,0.0
9,0.0
10,0.0
11,0.0
12,0.0
13,0.0
14,4.221445064877158
15,-12.963029421564423
16,-1.048099844809201
17,-9.05302802109395
18,4.752488244170505
2,1, 1, 1, 0, 2,30.00,45.00,Tuesday
7,-11.825
8,0.0
9,0.0
10,0.0
11,0.0
12,0.0
13,0.0
14,4.152563109101024
15,-12.784790274526652
16,-1.0530138646932983
17,-8.934211263428097
18,4.669700646271576
2,1, 1, 1, 0, 2,45.00,60.00,Tuesday
7,-11.7
8,0.0
9,0.0
10,0.0
11,0.0
12,0.0
13,0.0
14,4.096167828715458
15,-12.606639062119396
16,-1.0458464778257053
17,-8.809685899915735
18,4.60415734852899
2,1, 1, 1, 0, 3, 0.00,15.00,Tuesday
7,-11.549999999999999
8,0.0
9,0.0
10,0.0
11,0.0
12,0.0
13,0.0
14,4.042085147285408
15,-12.480860704157028
16,-1.0238288164507595
17,-8.667824838148704
18,4.545997726655624
2,1, 1, 1, 0, 3,15.00,30.00,Tuesday
7,-11.399999999999999
8,0.0
9,0.0
10,0.0
11,0.0
12,0.0
13,0.0
14,3.99149663359559
15,-12.356466909439942
16,-1.0002444201857089
17,-8.52493957682259
18,4.4904534253872339
2,1, 1, 1, 0, 3,30.00,45.00,Tuesday
7,-11.25
8,0.0
9,0.0
10,0.0
11,0.0
12,0.0
13,0.0
14,3.9419653789606707
15,-12.233614042935806
16,-0.9750586807555237
17,-8.381715335516276
18,4.436129420618272
2,1, 1, 1, 0, 3,45.00,60.00,Tuesday
7,-11.1
8,0.0
9,0.0
10,0.0
11,0.0
12,0.0
13,0.0
14,3.8930880601544728
15,-12.112357513638461
16,-0.9492568464723945
17,-8.23867452281911
18,4.3828257201630909
2,1, 1, 1, 0, 4, 0.00,15.00,Tuesday
7,-11.1
8,0.0
9,0.0
10,0.0
11,0.0
12,0.0
13,0.0
14,3.8400296985610868
15,-12.083699148994099
16,-1.015419308054561
17,-8.285115432564794
18,4.329003684917273
2,1, 1, 1, 0, 4,15.00,30.00,Tuesday
7,-11.1
8,0.0
9,0.0
10,0.0
11,0.0
12,0.0
13,0.0
14,3.7872931764047559
15,-12.056162876196457
16,-1.0725663306378693
17,-8.338175958814589
18,4.274158007872075
2,1, 1, 1, 0, 4,30.00,45.00,Tuesday
7,-11.1
8,0.0
9,0.0
10,0.0
11,0.0
12,0.0
13,0.0
14,3.734131247307055
15,-12.030175879523976
16,-1.1283350226955236
17,-8.391301573659689
18,4.218594966120459
2,1, 1, 1, 0, 4,45.00,60.00,Tuesday
7,-11.1
8,0.0
9,0.0
10,0.0
11,0.0
12,0.0
13,0.0
14,3.6807403342084168
15,-12.00560049343507
16,-1.18369226557013
17,-8.44345916323391
18,4.162747853478079
2,1, 1, 1, 0, 5, 0.00,15.00,Tuesday
7,-10.975
8,0.0
9,0.0
10,0.0
11,0.0
12,0.0
13,0.0
14,3.633300346277614
15,-11.883679450174855
16,-1.1782595569876549
17,-8.371824687362619
18,4.108297656705093
2,1, 1, 1, 0, 5,15.00,30.00,Tuesday
7,-10.85
8,0.0
9,0.0
10,0.0
11,0.0
12,0.0
13,0.0
14,3.586185671772904
15,-11.761824834652288
16,-1.1762992327773532
17,-8.2926677157825
18,4.055870686005543
2,1, 1, 1, 0, 5,30.00,45.00,Tuesday
7,-10.725
8,0.0
9,0.0
10,0.0
11,0.0
12,0.0
13,0.0
14,3.5403029939533785
15,-11.639942302496469
16,-1.1743000292388502
17,-8.212313233256737
18,4.0051433174641579
2,1, 1, 1, 0, 5,45.00,60.00,Tuesday
7,-10.6
8,0.0
9,0.0
10,0.0
11,0.0
12,0.0
13,0.0
14,3.4954344968152215
15,-11.518067940793806
16,-1.1715002016186418
17,-8.131513475096654
18,3.955606437959288
2,1, 1, 1, 0, 6, 0.00,15.00,Tuesday
7,-10.6
8,0.0
9,0.0
10,0.0
11,0.0
12,0.0
13,0.0
14,3.443378957018262
15,-11.519093963434754
16,-1.211263945888163
17,-8.138272608526848
18,3.9053827119029647
2,1, 1, 1, 0, 6,15.00,30.00,Tuesday
7,-10.6
8,0.0
9,0.0
10,0.0
11,0.0
12,0.0
13,0.0
14,3.3919684060413295
15,-11.520058594598812
16,-1.2491941863623879
17,-8.150662318893524
18,3.853673127307742
2,1, 1, 1, 0, 6,30.00,45.00,Tuesday
7,-10.6
8,0.0
9,0.0
10,0.0
11,0.0
12,0.0
13,0.0
14,3.339974589446665
15,-11.521067567019676
16,-1.2867908903358512
17,-8.163748418370574
18,3.8008063946616579
2,1, 1, 1, 0, 6,45.00,60.00,Tuesday
7,-10.6
8,0.0
9,0.0
10,0.0
11,0.0
12,0.0
13,0.0
14,3.287643141545383
15,-11.522074134238438
16,-1.3247056275373553
17,-8.177076818725539
18,3.747370461041046
2,1, 1, 1, 0, 7, 0.00,15.00,Tuesday
7,-10.6
8,0.0
9,0.0
10,0.0
11,0.0
12,0.0
13,0.0
14,3.2372167968622636
15,-11.498385343192784
16,-1.3786133517733106
17,-8.222452064352638
18,3.6939400265913644
2,1, 1, 1, 0, 7,15.00,30.00,Tuesday
7,-10.6
8,0.0
9,0.0
10,0.0
11,0.0
12,0.0
13,0.0
14,3.186631250142577
15,-11.475930415728865
16,-1.4299239229408727
17,-8.268212612187995
18,3.640845872112185
2,1, 1, 1, 0, 7,30.00,45.00,Tuesday
7,-10.6
8,0.0
9,0.0
10,0.0
11,0.0
12,0.0
13,0.0
14,3.136273657268331
15,-11.454617765919029
16,-1.4804679351635742
17,-8.313086902173552
18,3.5881224181362989
2,1, 1, 1, 0, 7,45.00,60.00,Tuesday
7,-10.6
8,0.0
9,0.0
10,0.0
11,0.0
12,0.0
13,0.0
14,3.0861768212380249
15,-11.434378740026024
16,-1.530321909929853
17,-8.35680768228599
18,3.5357126124102886
2,1, 1, 1, 0, 8, 0.00,15.00,Tuesday
7,-10.45
8,0.0
9,0.0
10,0.0
11,0.0
12,0.0
13,0.0
14,3.0357656618059609
15,-11.385623530675526
16,-1.5312626570264457
17,-8.302090094820415
18,3.4836786576952099
2,1, 1, 1, 0, 8,15.00,30.00,Tuesday
7,-10.3
8,164.70730277996078
9,1.0
10,22.819555959623899
11,1.0
12,22.819555959623899
13,164.70730277996078
14,3.1095607994343035
15,-9.711970567183626
16,-1.201378851620177
17,-7.943443731974412
18,3.4507591028670179
2,1, 1, 1, 0, 8,30.00,45.00,Tuesday
7,-10.15
8,808.7145075753374
9,1.0
10,109.75755355442667
11,1.0
12,109.75755355442667
13,808.7145075753374
14,3.524070206808221
15,-3.3428901633729586
16,0.1328372648841878
17,-6.732457052578752
18,3.488994149276041
2,1, 1, 1, 0, 8,45.00,60.00,Tuesday
7,-10.0
8,1470.5605139501664
9,1.0
10,195.8764694434918
11,1.0
12,195.8764694434918
13,1470.5605139501664
14,4.057303732662489
15,3.1450024641421265
16,1.5613415828647704
17,-5.495633440014842
18,3.6050857296235105
2,1, 1, 1, 0, 9, 0.00,15.00,Tuesday
7,-9.725
8,2130.1268679617157
9,1.0
10,278.97248314719988
11,1.0
12,278.97248314719988
13,2130.1268679617157
14,4.464337269730219
15,8.317507782210676
16,2.9746273309899609
17,-4.389498256405659
18,3.7777242577131298
2,1, 1, 1, 0, 9,15.00,30.00,Tuesday
7,-9.45
8,2825.385387072841
9,1.0
10,364.91995730569456
11,1.0
12,364.91995730569456
13,2825.385387072841
14,4.912688688806423
15,13.39833390842953
16,4.517914084311087
17,-3.2437259833618556
18,3.995875220869119
2,1, 1, 1, 0, 9,30.00,45.00,Tuesday
7,-9.175
8,3285.3657815806207
9,1.0
10,420.35879993239237
11,1.0
12,420.35879993239237
13,3285.3657815806207
14,5.233057326777144
15,16.15633518886991
16,5.509501390064145
17,-2.5366561385396837
18,4.237179641278623
2,1, 1, 1, 0, 9,45.00,60.00,Tuesday
7,-8.9
8,3762.8630174369429
9,1.0
10,478.00138373643099
11,1.0
12,478.00138373643099
13,3762.8630174369429
14,5.605971549621446
15,19.151508872420739
16,6.496409160119356
17,-1.8149294868177322
18,4.4913074050712489
2,1, 1, 1, 0,10, 0.00,15.00,Tuesday
7,-8.350000000000002
8,4250.448423053731
9,1.0
10,536.9185644770597
11,1.0
12,536.9185644770597
13,4250.448423053731
14,5.924931799079603
15,20.269095437788076
16,7.479167091399177
17,-1.1301330846140446
18,4.758613347453708
2,1, 1, 1, 0,10,15.00,30.00,Tuesday
7,-7.800000000000001
8,4754.8784400001809
9,1.0
10,598.0969199229219
11,1.0
12,598.0969199229219
13,4754.8784400001809
14,6.272598029728842
15,21.522029002572596
16,8.476064727528865
17,-0.4449220228298145
18,5.044831739940941
2,1, 1, 1, 0,10,30.00,45.00,Tuesday
7,-7.25
8,5085.790385716765
9,1.0
10,637.6133352894237
11,1.0
12,637.6133352894237
13,5085.790385716765
14,6.542660247090786
15,21.581670058560446
16,9.179970053755369
17,0.012646812648995365
18,5.164836418440292
2,1, 1, 1, 0,10,45.00,60.00,Tuesday
7,-6.7
8,5411.8281742364
9,1.0
10,676.6412284283772
11,1.0
12,676.6412284283772
13,5411.8281742364
14,6.791196346762048
15,21.740630699541727
16,9.84207767439409
17,0.4622226884122256
18,5.40144099532702
2,1, 1, 1, 0,11, 0.00,15.00,Tuesday
7,-6.275
8,5731.93450410702
9,1.0
10,715.0112779846514
11,1.0
12,715.0112779846514
13,5731.93450410702
14,7.089694139923265
15,23.83741483119748
16,10.583425732734839
17,1.1826433391035494
18,5.585467639749131
2,1, 1, 1, 0,11,15.00,30.00,Tuesday
7,-5.85
8,6044.505928231053
9,1.0
10,752.5077794605232
11,1.0
12,752.5077794605232
13,6044.505928231053
14,7.454266410743919
15,25.774273411868923
16,11.33880887227599
17,1.894344957985595
18,6.016625671757133
2,1, 1, 1, 0,11,30.00,45.00,Tuesday
7,-5.425
8,5951.610197095371
9,1.0
10,742.5988714321785
11,1.0
12,742.5988714321785
13,5951.610197095371
14,7.73465845606698
15,25.627962342438907
16,11.547957581423077
17,2.176210825294561
18,6.399146848843627
2,1, 1, 1, 0,11,45.00,60.00,Tuesday
7,-5.0
8,5818.873031211445
9,1.0
10,727.8169025450712
11,1.0
12,727.8169025450712
13,5818.873031211445
14,7.9781801977893009
15,25.39892593926317
16,11.67553485795213
17,2.419726321872133
18,6.724338843729827
2,1, 1, 1, 0,12, 0.00,15.00,Tuesday
7,-4.575
8,5590.605323962885
9,1.0
10,700.3759009170325
11,1.0
12,700.3759009170325
13,5590.605323962885
14,8.150408764581169
15,24.656782673602934
16,11.643692095655183
17,2.586232264163641
18,6.998744269553899
2,1, 1, 1, 0,12,15.00,30.00,Tuesday
7,-4.15
8,5421.315289253884
9,1.0
10,681.6705029034473
11,1.0
12,681.6705029034473
13,5421.315289253884
14,8.30777862404933
15,24.32589868169433
16,11.678393350764282
17,2.8211921155010488
18,7.23632761404124
2,1, 1, 1, 0,12,30.00,45.00,Tuesday
7,-3.7249999999999998
8,4759.463309286249
9,1.0
10,602.01865277251
11,1.0
12,602.01865277251
13,4759.463309286249
14,8.25096873293794
15,21.298640785848744
16,10.957525474611885
17,2.5173287354838296
18,7.414579981551462
2,1, 1, 1, 0,12,45.00,60.00,Tuesday
7,-3.3
8,3887.1134706147715
9,1.0
10,493.55004396206007
11,1.0
12,493.55004396206007
13,3887.1134706147715
14,8.064316143709155
15,17.1204337412613
16,9.786420751246283
17,1.9276971747161725
18,7.507761128379
2,1, 1, 1, 0,13, 0.00,15.00,Tuesday
7,-3.0249999999999996
8,3209.574868603734
9,1.0
10,412.335026418112
11,1.0
12,412.335026418112
13,3209.574868603734
14,7.936643302943232
15,14.276534360368201
16,8.85921261130295
17,1.5171589148248473
18,7.533264289763412
2,1, 1, 1, 0,13,15.00,30.00,Tuesday
7,-2.75
8,2350.7180690914585
9,1.0
10,305.94037763660148
11,1.0
12,305.94037763660148
13,2350.7180690914585
14,7.632916367320191
15,10.103892437416182
16,7.516082225953824
17,0.835905492999018
18,7.502286107433971
2,1, 1, 1, 0,13,30.00,45.00,Tuesday
7,-2.475
8,2146.122384804586
9,1.0
10,281.0763483922329
11,1.0
12,281.0763483922329
13,2146.122384804586
14,7.613392137171618
15,9.591895098494677
16,7.248160128370387
17,0.9075705883325327
18,7.454176901491213
2,1, 1, 1, 0,13,45.00,60.00,Tuesday
7,-2.2
8,1945.7887113955822
9,1.0
10,256.7721209415886
11,1.0
12,256.7721209415886
13,1945.7887113955822
14,7.57690089556734
15,8.984661525676364
16,7.054847937201089
17,1.0068823688596922
18,7.414701338884041
2,1, 1, 1, 0,14, 0.00,15.00,Tuesday
7,-1.9250000000000003
8,1589.5114814468812
9,1.0
10,210.73276284570657
11,1.0
12,210.73276284570657
13,1589.5114814468812
14,7.437969392005779
15,7.437805360174342
16,6.544750963851357
17,0.8741014247500516
18,7.378833063465553
2,1, 1, 1, 0,14,15.00,30.00,Tuesday
7,-1.6500000000000002
8,1411.9992818845379
9,1.0
10,189.38488290342594
11,1.0
12,189.38488290342594
13,1411.9992818845379
14,7.405370154797195
15,7.032508668866909
16,6.350170215202638
17,0.9643060897315081
18,7.34623036852961
2,1, 1, 1, 0,14,30.00,45.00,Tuesday
7,-1.375
8,1346.6477146256526
9,1.0
10,179.3940297802914
11,1.0
12,179.3940297802914
13,1346.6477146256526
14,7.398008799091833
15,7.154817922715583
16,6.350349654664399
17,1.1827636623557397
18,7.319384754114936
2,1, 1, 1, 0,14,45.00,60.00,Tuesday
7,-1.1
8,1280.5495415471219
9,1.0
10,169.43349014176136
11,1.0
12,169.43349014176136
13,1280.5495415471219
14,7.387103838745871
15,7.253886128885357
16,6.344695118311222
17,1.3975589423237125
18,7.298174583702914
2,1, 1, 1, 0,15, 0.00,15.00,Tuesday
7,-1.1
8,1347.8587297811799
9,1.0
10,178.15692317953907
11,1.0
12,178.15692317953907
13,1347.8587297811799
14,7.446117382177573
15,8.070530378384295
16,6.4920649867798378
17,1.5559702691895155
18,7.2862653916187229
2,1, 1, 1, 0,15,15.00,30.00,Tuesday
7,-1.1
8,1266.276259391967
9,1.0
10,166.40516310952945
11,1.0
12,166.40516310952945
13,1266.276259391967
14,7.396003421655787
15,7.708781219045693
16,6.363090319761511
17,1.5006398320249446
18,7.277087178867553
2,1, 1, 1, 0,15,30.00,45.00,Tuesday
7,-1.1
8,1067.701389865137
9,1.0
10,140.8967369711617
11,1.0
12,140.8967369711617
13,1067.701389865137
14,7.280483869101126
15,6.502796148632763
16,5.994609873676154
17,1.2630248131448525
18,7.259357963554332
2,1, 1, 1, 0,15,45.00,60.00,Tuesday
7,-1.1
8,878.6312280760801
9,1.0
10,116.57355796743004
11,1.0
12,116.57355796743004
13,878.6312280760801
14,7.156158495642128
15,5.291493982867307
16,5.627647936162248
17,1.0194035411328742
18,7.225076891201075
2,1, 1, 1, 0,16, 0.00,15.00,Tuesday
7,-1.1
8,697.3318727282369
9,1.0
10,93.14939272689483
11,1.0
12,93.14939272689483
13,697.3318727282369
14,7.046156171663739
15,4.241310710240246
16,5.310756640261047
17,0.8588298859201018
18,7.1718478385942039
2,1, 1, 1, 0,16,15.00,30.00,Tuesday
7,-1.1
8,432.9048901425401
9,1.0
10,57.94047897402063
11,1.0
12,57.94047897402063
13,432.9048901425401
14,6.848353536786893
15,2.1167677045689716
16,4.806034557053749
17,0.5360064752386506
18,7.0907781045826259
2,1, 1, 1, 0,16,30.00,45.00,Tuesday
7,-1.1
8,335.64270075152066
9,1.0
10,45.38251793443488
11,1.0
12,45.38251793443488
13,335.64270075152066
14,6.772243595349979
15,1.5063721031476143
16,4.610367987865175
17,0.48215893650774435
18,6.997525723072101
2,1, 1, 1, 0,16,45.00,60.00,Tuesday
7,-1.1
8,234.3008415590897
9,1.0
10,32.02625108222755
11,1.0
12,32.02625108222755
13,234.3008415590897
14,6.655844598487157
15,0.6421963536703532
16,4.420953628814232
17,0.4225818434541111
18,6.90539008438867
2,1, 1, 1, 0,17, 0.00,15.00,Tuesday
7,-1.1
8,128.5136834333092
9,1.0
10,17.762198626050539
11,1.0
12,17.762198626050539
13,128.5136834333092
14,6.514325501889544
15,-0.609936090340058
16,4.1663158292405459
17,0.2585283350400118
18,6.813503533893869
2,1, 1, 1, 0,17,15.00,30.00,Tuesday
7,-1.1
8,0.0
9,0.0
10,0.0
11,0.0
12,0.0
13,0.0
14,6.321929533351822
15,-2.4476911865417318
16,3.8151477577685
17,-0.039172415400628327
18,6.709354080375156
2,1, 1, 1, 0,17,30.00,45.00,Tuesday
7,-1.1
8,0.0
9,0.0
10,0.0
11,0.0
12,0.0
13,0.0
14,6.266370296558673
15,-2.5836940674796855
16,3.7601525838256295
17,-0.012804520007875908
18,6.607727181236173
2,1, 1, 1, 0,17,45.00,60.00,Tuesday
7,-1.1
8,0.0
9,0.0
10,0.0
11,0.0
12,0.0
13,0.0
14,6.1944887975651199
15,-2.775440867232917
16,3.737541165988148
17,0.031123568762211563
18,6.522405887668214
2,1, 1, 1, 0,18, 0.00,15.00,Tuesday
7,-1.25
8,0.0
9,0.0
10,0.0
11,0.0
12,0.0
13,0.0
14,6.133759944026876
15,-2.9232025096289209
16,3.6373086593893619
17,-0.0947224456508593
18,6.453703229668825
2,1, 1, 1, 0,18,15.00,30.00,Tuesday
7,-1.4
8,0.0
9,0.0
10,0.0
11,0.0
12,0.0
13,0.0
14,6.07813141066476
15,-3.0756837843011848
16,3.551222494563035
17,-0.21710814418872816
18,6.396298671902605
2,1, 1, 1, 0,18,30.00,45.00,Tuesday
7,-1.5499999999999999
8,0.0
9,0.0
10,0.0
11,0.0
12,0.0
13,0.0
14,6.026477739194447
15,-3.227696732960553
16,3.4696041623442968
17,-0.3384007071748556
18,6.344961152757839
2,1, 1, 1, 0,18,45.00,60.00,Tuesday
7,-1.7
8,0.0
9,0.0
10,0.0
11,0.0
12,0.0
13,0.0
14,5.976661095650141
15,-3.3798844621836836
16,3.3905536814392009
17,-0.4588002986034212
18,6.296470899354849
2,1, 1, 1, 0,19, 0.00,15.00,Tuesday
7,-1.825
8,0.0
9,0.0
10,0.0
11,0.0
12,0.0
13,0.0
14,5.951623466308275
15,-3.231640358622355
16,3.278516337942847
17,-0.6470372522396133
18,6.2524107331234
2,1, 1, 1, 0,19,15.00,30.00,Tuesday
7,-1.9500000000000002
8,0.0
9,0.0
10,0.0
11,0.0
12,0.0
13,0.0
14,5.925278021767357
15,-3.1648898807036245
16,3.183375091069081
17,-0.8225606249221755
18,6.214509609082168
2,1, 1, 1, 0,19,30.00,45.00,Tuesday
7,-2.075
8,0.0
9,0.0
10,0.0
11,0.0
12,0.0
13,0.0
14,5.894347453004939
15,-3.2387613624622886
16,3.119279401072731
17,-0.9414637186933419
18,6.181728848655333
2,1, 1, 1, 0,19,45.00,60.00,Tuesday
7,-2.2
8,0.0
9,0.0
10,0.0
11,0.0
12,0.0
13,0.0
14,5.865936579353677
15,-3.216527002685296
16,3.02759616163803
17,-1.1097029464533535
18,6.150998773746517
2,1, 1, 1, 0,20, 0.00,15.00,Tuesday
7,-1.9250000000000003
8,0.0
9,0.0
10,0.0
11,0.0
12,0.0
13,0.0
14,5.854322978412025
15,-2.915396596204534
16,3.1025931871319587
17,-0.9461620289956727
18,6.123638983770392
2,1, 1, 1, 0,20,15.00,30.00,Tuesday
7,-1.6500000000000002
8,0.0
9,0.0
10,0.0
11,0.0
12,0.0
13,0.0
14,5.8434218621906199
15,-2.617227320751907
16,3.1689693007958228
17,-0.7637796207201859
18,6.1004202343774669
2,1, 1, 1, 0,20,30.00,45.00,Tuesday
7,-1.375
8,0.0
9,0.0
10,0.0
11,0.0
12,0.0
13,0.0
14,5.834553737345564
15,-2.320339152841182
16,3.230401562485895
17,-0.566123423654858
18,6.080673101139011
2,1, 1, 1, 0,20,45.00,60.00,Tuesday
7,-1.1
8,0.0
9,0.0
10,0.0
11,0.0
12,0.0
13,0.0
14,5.828580323184748
15,-2.0247178438933455
16,3.3049586309196
17,-0.3842551610357532
18,6.063646715102147
2,1, 1, 1, 0,21, 0.00,15.00,Tuesday
7,-1.25
8,0.0
9,0.0
10,0.0
11,0.0
12,0.0
13,0.0
14,5.778937170292098
15,-2.3060411117270487
16,3.2686729144910489
17,-0.41140681956073879
18,6.042104582304612
2,1, 1, 1, 0,21,15.00,30.00,Tuesday
7,-1.4
8,0.0
9,0.0
10,0.0
11,0.0
12,0.0
13,0.0
14,5.731007248791922
15,-2.5226530234854978
16,3.2134088924263439
17,-0.4829059366902584
18,6.011031354792371
2,1, 1, 1, 0,21,30.00,45.00,Tuesday
7,-1.5499999999999999
8,0.0
9,0.0
10,0.0
11,0.0
12,0.0
13,0.0
14,5.6698136000740659
15,-2.8671878739175264
16,3.1815092184683637
17,-0.5075911544749943
18,5.969829768336765
2,1, 1, 1, 0,21,45.00,60.00,Tuesday
7,-1.7
8,0.0
9,0.0
10,0.0
11,0.0
12,0.0
13,0.0
14,5.6035114193307369
15,-3.3193308627820077
16,3.1561400659484777
17,-0.5114695387691199
18,5.9210790325048
2,1, 1, 1, 0,22, 0.00,15.00,Tuesday
7,-1.5499999999999999
8,0.0
9,0.0
10,0.0
11,0.0
12,0.0
13,0.0
14,5.606003876016658
15,-2.8315605677133197
16,3.1113293022859809
17,-0.5312381648378164
18,5.877622458186128
2,1, 1, 1, 0,22,15.00,30.00,Tuesday
7,-1.4
8,0.0
9,0.0
10,0.0
11,0.0
12,0.0
13,0.0
14,5.5984297839749959
15,-2.501392020544511
16,3.1082432676386135
17,-0.5193255175460081
18,5.846603112730543
2,1, 1, 1, 0,22,30.00,45.00,Tuesday
7,-1.25
8,0.0
9,0.0
10,0.0
11,0.0
12,0.0
13,0.0
14,5.58957117441612
15,-2.281300888614064
16,3.126378186543377
17,-0.45142706083606756
18,5.826076564519494
2,1, 1, 1, 0,22,45.00,60.00,Tuesday
7,-1.1
8,0.0
9,0.0
10,0.0
11,0.0
12,0.0
13,0.0
14,5.584444507665193
15,-1.998705201989596
16,3.133463387094139
17,-0.40908082180817476
18,5.810876259146641
2,1, 1, 1, 0,23, 0.00,15.00,Tuesday
7,-1.25
8,0.0
9,0.0
10,0.0
11,0.0
12,0.0
13,0.0
14,5.5334009780188799
15,-2.3021892958383955
16,3.0076169230950997
17,-0.6603417728584304
18,5.790128402326206
2,1, 1, 1, 0,23,15.00,30.00,Tuesday
7,-1.4
8,0.0
9,0.0
10,0.0
11,0.0
12,0.0
13,0.0
14,5.48545076571452
15,-2.6068305978222656
16,2.8731359218496665
17,-0.9256281989548825
18,5.758613565133544
2,1, 1, 1, 0,23,30.00,45.00,Tuesday
7,-1.5499999999999999
8,0.0
9,0.0
10,0.0
11,0.0
12,0.0
13,0.0
14,5.432607275351979
15,-2.912160384128311
16,2.7371138307647699
17,-1.1922429843222063
18,5.717620011783505
2,1, 1, 1, 0,23,45.00,60.00,Tuesday
7,-1.7
8,0.0
9,0.0
10,0.0
11,0.0
12,0.0
13,0.0
14,5.375720608250486
15,-3.217831219090909
16,2.5973174726267418
17,-1.4607747374761858
18,5.670304700411621
2,1, 1, 1, 0,24, 0.00,15.00,Tuesday
7,-1.7
8,0.0
9,0.0
10,0.0
11,0.0
12,0.0
13,0.0
14,5.335489247444351
15,-3.2719089794754696
16,2.5447774914629237
17,-1.5256721422560987
18,5.622751934258248
2,1, 1, 1, 0,24,15.00,30.00,Tuesday
7,-1.7
8,0.0
9,0.0
10,0.0
11,0.0
12,0.0
13,0.0
14,5.293146010336359
15,-3.3266183395143
16,2.4948800112875348
17,-1.5864210005192945
18,5.578105198921295
2,1, 1, 1, 0,24,30.00,45.00,Tuesday
7,-1.7
8,0.0
9,0.0
10,0.0
11,0.0
12,0.0
13,0.0
14,5.251992601477403
15,-3.381213702613121
16,2.444719934640659
17,-1.6471353308162407
18,5.536271358578052
2,1, 1, 1, 0,24,45.00,60.00,Tuesday
7,-1.7
8,0.0
9,0.0
10,0.0
11,0.0
12,0.0
13,0.0
14,5.211732310621605
15,-3.4358113185431646
16,2.3953284708142634
17,-1.7076739335180947
18,5.496098951775969
End of Data
 Number of Records Written=        1152
