Program Version,EnergyPlus, Version 9.5.0-de239b2e5f, YMD=2023.02.17 15:24
1,5,Environment Title[],Latitude[deg],Longitude[deg],Time Zone[],Elevation[m]
2,8,Day of Simulation[],Month[],Day of Month[],DST Indicator[1=yes 0=no],Hour[],StartMinute[],EndMinute[],DayType
3,5,Cumulative Day of Simulation[],Month[],Day of Month[],DST Indicator[1=yes 0=no],DayType  ! When Daily Report Variables Requested
4,2,Cumulative Days of Simulation[],Month[]  ! When Monthly Report Variables Requested
5,1,Cumulative Days of Simulation[] ! When Run Period Report Variables Requested
6,1,Calendar Year of Simulation[] ! When Annual Report Variables Requested
7,1,Environment,Site Outdoor Air Drybulb Temperature [C] !TimeStep
8,1,ZONE ONE,Zone Windows Total Transmitted Solar Radiation Rate [W] !TimeStep
9,1,ZN001:WALL001,Surface Outside Face Sunlit Fraction [] !TimeStep
10,1,ZN001:WALL001,Surface Outside Face Incident Solar Radiation Rate per Area [W/m2] !TimeStep
11,1,ZN001:WALL001:WIN001,Surface Outside Face Sunlit Fraction [] !TimeStep
12,1,ZN001:WALL001:WIN001,Surface Outside Face Incident Solar Radiation Rate per Area [W/m2] !TimeStep
13,1,ZN001:WALL001:WIN001,Surface Window Transmitted Solar Radiation Rate [W] !TimeStep
14,1,ZN001:WALL001,Surface Inside Face Temperature [C] !TimeStep
15,1,ZN001:WALL001,Surface Outside Face Temperature [C] !TimeStep
16,1,ZN001:WALL001:WIN001,Surface Inside Face Temperature [C] !TimeStep
17,1,ZN001:WALL001:WIN001,Surface Outside Face Temperature [C] !TimeStep
18,1,ZONE ONE,Zone Mean Air Temperature [C] !TimeStep
End of Data Dictionary
1,RUN PERIOD 1,  41.98, -87.92,  -6.00, 201.00
2,1, 1, 1, 0, 1, 0.00,15.00,Tuesday
7,-4.324999999999999
8,0.0
9,0.0
10,0.0
11,0.0
12,0.0
13,0.0
14,9.93651767283139
15,-5.82309448853715
16,7.75850250630765
17,-4.3439703695552229
18,10.506274794242673
2,1, 1, 1, 0, 1,15.00,30.00,Tuesday
7,-6.949999999999999
8,0.0
9,0.0
10,0.0
11,0.0
12,0.0
13,0.0
14,9.751848143604251
15,-8.289700980525018
16,7.27329423952051
17,-6.520662331664198
18,10.401385233938357
2,1, 1, 1, 0, 1,30.00,45.00,Tuesday
7,-9.575
8,0.0
9,0.0
10,0.0
11,0.0
12,0.0
13,0.0
14,9.547979988607733
15,-10.764158859829287
16,6.780837095103664
17,-8.703806135647767
18,10.267317049147902
2,1, 1, 1, 0, 1,45.00,60.00,Tuesday
7,-12.2
8,0.0
9,0.0
10,0.0
11,0.0
12,0.0
13,0.0
14,9.329152708720513
15,-13.245267741821423
16,6.273028226631311
17,-10.894314101824989
18,10.113369736906235
2,1, 1, 1, 0, 2, 0.00,15.00,Tuesday
7,-12.075
8,0.0
9,0.0
10,0.0
11,0.0
12,0.0
13,0.0
14,9.252818811778667
15,-13.045594162843566
16,6.1787671643462549
17,-10.722871834509818
18,9.97397895782427
2,1, 1, 1, 0, 2,15.00,30.00,Tuesday
7,-11.95
8,0.0
9,0.0
10,0.0
11,0.0
12,0.0
13,0.0
14,9.163713011781907
15,-12.86870969765471
16,6.125583891457154
17,-10.567988925194925
18,9.864709668409024
2,1, 1, 1, 0, 2,30.00,45.00,Tuesday
7,-11.825
8,0.0
9,0.0
10,0.0
11,0.0
12,0.0
13,0.0
14,9.090882075631738
15,-12.690731427619364
16,6.0775028549683729
17,-10.412937323315532
18,9.779960306222016
2,1, 1, 1, 0, 2,45.00,60.00,Tuesday
7,-11.7
8,0.0
9,0.0
10,0.0
11,0.0
12,0.0
13,0.0
14,9.028453520157733
15,-12.512847557026938
16,6.04179446029076
17,-10.25606210961098
18,9.709152846896786
2,1, 1, 1, 0, 3, 0.00,15.00,Tuesday
7,-11.549999999999999
8,0.0
9,0.0
10,0.0
11,0.0
12,0.0
13,0.0
14,8.96738689608714
15,-12.384691462602519
16,6.0124167786692059
17,-10.103955721553576
18,9.64391747232421
2,1, 1, 1, 0, 3,15.00,30.00,Tuesday
7,-11.399999999999999
8,0.0
9,0.0
10,0.0
11,0.0
12,0.0
13,0.0
14,8.90911339760124
15,-12.257810586089912
16,5.984660890700013
17,-9.951667934043769
18,9.580323748744087
2,1, 1, 1, 0, 3,30.00,45.00,Tuesday
7,-11.25
8,0.0
9,0.0
10,0.0
11,0.0
12,0.0
13,0.0
14,8.8514927735297
15,-12.132341587858383
16,5.958511713101302
17,-9.799115416670248
18,9.517394568823122
2,1, 1, 1, 0, 3,45.00,60.00,Tuesday
7,-11.1
8,0.0
9,0.0
10,0.0
11,0.0
12,0.0
13,0.0
14,8.794277250241685
15,-12.008337588033259
16,5.932926415322754
17,-9.646478910119186
18,9.455125709196924
2,1, 1, 1, 0, 4, 0.00,15.00,Tuesday
7,-11.1
8,0.0
9,0.0
10,0.0
11,0.0
12,0.0
13,0.0
14,8.73337949860047
15,-11.982819169923518
16,5.871965517486842
17,-9.681805952886407
18,9.392856766820142
2,1, 1, 1, 0, 4,15.00,30.00,Tuesday
7,-11.1
8,0.0
9,0.0
10,0.0
11,0.0
12,0.0
13,0.0
14,8.672922717955128
15,-11.958269416726824
16,5.812953175574194
17,-9.715653387899807
18,9.330288383399746
2,1, 1, 1, 0, 4,30.00,45.00,Tuesday
7,-11.1
8,0.0
9,0.0
10,0.0
11,0.0
12,0.0
13,0.0
14,8.612359698481408
15,-11.935113797529587
16,5.754239084126368
17,-9.748433914330349
18,9.267508823456542
2,1, 1, 1, 0, 4,45.00,60.00,Tuesday
7,-11.1
8,0.0
9,0.0
10,0.0
11,0.0
12,0.0
13,0.0
14,8.5517842137242
15,-11.913228592775873
16,5.695694455164642
17,-9.780166874641737
18,9.204700198356007
2,1, 1, 1, 0, 5, 0.00,15.00,Tuesday
7,-10.975
8,0.0
9,0.0
10,0.0
11,0.0
12,0.0
13,0.0
14,8.496638376294643
15,-11.79152036677438
16,5.6643024098069649
17,-9.688271361397483
18,9.142948113367316
2,1, 1, 1, 0, 5,15.00,30.00,Tuesday
7,-10.85
8,0.0
9,0.0
10,0.0
11,0.0
12,0.0
13,0.0
14,8.441704472788715
15,-11.669864603958933
16,5.63179819349557
17,-9.588437155448105
18,9.082695718979405
2,1, 1, 1, 0, 5,30.00,45.00,Tuesday
7,-10.725
8,0.0
9,0.0
10,0.0
11,0.0
12,0.0
13,0.0
14,8.387768001184876
15,-11.548186840234145
16,5.599719035787416
17,-9.487932828038084
18,9.023731289490913
2,1, 1, 1, 0, 5,45.00,60.00,Tuesday
7,-10.6
8,0.0
9,0.0
10,0.0
11,0.0
12,0.0
13,0.0
14,8.33466050874449
15,-11.426518664790012
16,5.568469354245167
17,-9.387265306757059
18,8.96570895781916
2,1, 1, 1, 0, 6, 0.00,15.00,Tuesday
7,-10.6
8,0.0
9,0.0
10,0.0
11,0.0
12,0.0
13,0.0
14,8.274967174648334
15,-11.427654743552387
16,5.5156398186877599
17,-9.38792819065759
18,8.90713191069709
2,1, 1, 1, 0, 6,15.00,30.00,Tuesday
7,-10.6
8,0.0
9,0.0
10,0.0
11,0.0
12,0.0
13,0.0
14,8.215914088810696
15,-11.428761560660766
16,5.4630854994519499
17,-9.395222631066702
18,8.847344063717874
2,1, 1, 1, 0, 6,30.00,45.00,Tuesday
7,-10.6
8,0.0
9,0.0
10,0.0
11,0.0
12,0.0
13,0.0
14,8.156368457208194
15,-11.429908862762856
16,5.410657005296457
17,-9.402993528380023
18,8.786629690812415
2,1, 1, 1, 0, 6,45.00,60.00,Tuesday
7,-10.6
8,0.0
9,0.0
10,0.0
11,0.0
12,0.0
13,0.0
14,8.096561921771438
15,-11.431053163314849
16,5.357886161516262
17,-9.41086355689697
18,8.725483301038882
2,1, 1, 1, 0, 7, 0.00,15.00,Tuesday
7,-10.6
8,0.0
9,0.0
10,0.0
11,0.0
12,0.0
13,0.0
14,8.03861634661216
15,-11.409900169859496
16,5.30071175939446
17,-9.437905481318979
18,8.664567277111793
2,1, 1, 1, 0, 7,15.00,30.00,Tuesday
7,-10.6
8,0.0
9,0.0
10,0.0
11,0.0
12,0.0
13,0.0
14,7.980616116003909
15,-11.389842551713763
16,5.245203599725642
17,-9.465095799730307
18,8.604206022094461
2,1, 1, 1, 0, 7,30.00,45.00,Tuesday
7,-10.6
8,0.0
9,0.0
10,0.0
11,0.0
12,0.0
13,0.0
14,7.922956210827226
15,-11.37081017104456
16,5.190082321880993
17,-9.491491028244355
18,8.544359169149045
2,1, 1, 1, 0, 7,45.00,60.00,Tuesday
7,-10.6
8,0.0
9,0.0
10,0.0
11,0.0
12,0.0
13,0.0
14,7.865626892221264
15,-11.352742136890227
16,5.1354349499006279
17,-9.516996547251609
18,8.484899793496178
2,1, 1, 1, 0, 8, 0.00,15.00,Tuesday
7,-10.45
8,0.0
9,0.0
10,0.0
11,0.0
12,0.0
13,0.0
14,7.807873024271152
15,-11.302048630755336
16,5.0984871461512288
17,-9.46423574233961
18,8.4254251507784
2,1, 1, 1, 0, 8,15.00,30.00,Tuesday
7,-10.3
8,215.5879980222353
9,1.0
10,22.819555959623899
11,1.0
12,22.819555959623899
13,215.5879980222353
14,7.87834270293054
15,-9.627836114011574
16,5.342583088931974
17,-9.169886973966414
18,8.386480180969393
2,1, 1, 1, 0, 8,30.00,45.00,Tuesday
7,-10.15
8,1058.5392312119832
9,1.0
10,109.75755355442667
11,1.0
12,109.75755355442667
13,1058.5392312119832
14,8.302942757762928
15,-3.248238914241642
16,6.442484690189076
17,-8.197569736315245
18,8.426287307328727
2,1, 1, 1, 0, 8,45.00,60.00,Tuesday
7,-10.0
8,1924.8399544048012
9,1.0
10,195.8764694434918
11,1.0
12,195.8764694434918
13,1924.8399544048012
14,8.829266937088728
15,3.2148934202901375
16,7.681029874617309
17,-7.239642625263571
18,8.552583141937756
2,1, 1, 1, 0, 9, 0.00,15.00,Tuesday
7,-9.725
8,2788.1568045040946
9,1.0
10,278.97248314719988
11,1.0
12,278.97248314719988
13,2788.1568045040946
14,9.331692083144088
15,8.403457819713945
16,8.989223847567928
17,-6.377521385798104
18,8.739385561433524
2,1, 1, 1, 0, 9,15.00,30.00,Tuesday
7,-9.45
8,3698.191694964431
9,1.0
10,364.91995730569456
11,1.0
12,364.91995730569456
13,3698.191694964431
14,9.818845930748573
15,13.472947204205227
16,10.278618624601734
17,-5.527618810474792
18,8.975818281611167
2,1, 1, 1, 0, 9,30.00,45.00,Tuesday
7,-9.175
8,4300.2673206835229
9,1.0
10,420.35879993239237
11,1.0
12,420.35879993239237
13,4300.2673206835229
14,10.17318402823239
15,16.22897847068492
16,11.161615613151583
17,-4.986278233880398
18,9.24054483759242
2,1, 1, 1, 0, 9,45.00,60.00,Tuesday
7,-8.9
8,4925.271017558337
9,1.0
10,478.00138373643099
11,1.0
12,478.00138373643099
13,4925.271017558337
14,10.587720144580006
15,19.22244226661673
16,12.032496177578878
17,-4.435383299606542
18,9.522103353412137
2,1, 1, 1, 0,10, 0.00,15.00,Tuesday
7,-8.350000000000002
8,5563.47927965646
9,1.0
10,536.9185644770597
11,1.0
12,536.9185644770597
13,5563.47927965646
14,10.954136580264198
15,20.334471001940654
16,12.948336447751274
17,-3.783937281097451
18,9.820662727239754
2,1, 1, 1, 0,10,15.00,30.00,Tuesday
7,-7.800000000000001
8,6223.735720388039
9,1.0
10,598.0969199229219
11,1.0
12,598.0969199229219
13,6223.735720388039
14,11.353653374177052
15,21.58339234081874
16,13.880640743620689
17,-3.1197850731678047
18,9.962096683244907
2,1, 1, 1, 0,10,30.00,45.00,Tuesday
7,-7.25
8,6656.871608685562
9,1.0
10,637.6133352894237
11,1.0
12,637.6133352894237
13,6656.871608685562
14,11.629014826995764
15,21.638023545069478
16,14.56494745570717
17,-2.6488600440683855
18,10.235814642515895
2,1, 1, 1, 0,10,45.00,60.00,Tuesday
7,-6.7
8,7083.627635407371
9,1.0
10,676.6412284283772
11,1.0
12,676.6412284283772
13,7083.627635407371
14,11.896715857707413
15,21.793947618387447
16,15.182936148517115
17,-2.1714705296320746
18,10.438922305631266
2,1, 1, 1, 0,11, 0.00,15.00,Tuesday
7,-6.275
8,7502.619881932496
9,1.0
10,715.0112779846514
11,1.0
12,715.0112779846514
13,7502.619881932496
14,12.316934345947379
15,23.893746917326518
16,15.852048989752405
17,-1.5157186686866453
18,10.907547168116994
2,1, 1, 1, 0,11,15.00,30.00,Tuesday
7,-5.85
8,7911.749570952164
9,1.0
10,752.5077794605232
11,1.0
12,752.5077794605232
13,7911.749570952164
14,12.790402520711954
15,25.83095906143306
16,16.580357136716317
17,-0.8736743487614831
18,11.345298958648425
2,1, 1, 1, 0,11,30.00,45.00,Tuesday
7,-5.425
8,7790.156876744835
9,1.0
10,742.5988714321785
11,1.0
12,742.5988714321785
13,7790.156876744835
14,13.082404216514734
15,25.6828348327072
16,16.847474903027945
17,-0.5476791147114
18,11.752204598970107
2,1, 1, 1, 0,11,45.00,60.00,Tuesday
7,-5.0
8,7616.415097398768
9,1.0
10,727.8169025450712
11,1.0
12,727.8169025450712
13,7616.415097398768
14,13.360296528135521
15,25.454784557755706
16,17.015608761285649
17,-0.24664821697280105
18,12.112377038709245
2,1, 1, 1, 0,12, 0.00,15.00,Tuesday
7,-4.575
8,7317.63187899619
9,1.0
10,700.3759009170325
11,1.0
12,700.3759009170325
13,7317.63187899619
14,13.560454346894089
15,24.712964393707457
16,17.04219389263642
17,0.015484412512364543
18,12.422165960585968
2,1, 1, 1, 0,12,15.00,30.00,Tuesday
7,-4.15
8,7096.045470548525
9,1.0
10,681.6705029034473
11,1.0
12,681.6705029034473
13,7096.045470548525
14,13.780733894586142
15,24.383402198510884
16,17.125333577659604
17,0.33572022900699496
18,12.69426619547407
2,1, 1, 1, 0,12,30.00,45.00,Tuesday
7,-3.7249999999999998
8,6229.736928425406
9,1.0
10,602.01865277251
11,1.0
12,602.01865277251
13,6229.736928425406
14,13.69503932568795
15,21.354668773104757
16,16.573006562540514
17,0.26731462421253129
18,12.904300396848523
2,1, 1, 1, 0,12,45.00,60.00,Tuesday
7,-3.3
8,5087.904404183855
9,1.0
10,493.55004396206007
11,1.0
12,493.55004396206007
13,5087.904404183855
14,13.49925730975093
15,17.177748906611499
16,15.59403344645068
17,-0.004450512840207921
18,13.01985147246506
2,1, 1, 1, 0,13, 0.00,15.00,Tuesday
7,-3.0249999999999996
8,4201.063393949559
9,1.0
10,412.335026418112
11,1.0
12,412.335026418112
13,4201.063393949559
14,13.363862642615187
15,14.334953238598077
16,14.800610541428
17,-0.1684265734623409
18,13.0592373715119
2,1, 1, 1, 0,13,15.00,30.00,Tuesday
7,-2.75
8,3076.892122430221
9,1.0
10,305.94037763660148
11,1.0
12,305.94037763660148
13,3076.892122430221
14,13.025572292331429
15,10.16253501355116
16,13.67901129740551
17,-0.522953692245153
18,13.033518162999247
2,1, 1, 1, 0,13,30.00,45.00,Tuesday
7,-2.475
8,2809.0935899127655
9,1.0
10,281.0763483922329
11,1.0
12,281.0763483922329
13,2809.0935899127655
14,12.991443425159894
15,9.649617826693373
16,13.366493143443109
17,-0.35272468111281798
18,12.987353123806079
2,1, 1, 1, 0,13,45.00,60.00,Tuesday
7,-2.2
8,2546.8736709552365
9,1.0
10,256.7721209415886
11,1.0
12,256.7721209415886
13,2546.8736709552365
14,12.952014455407165
15,9.043105149233261
16,13.15250937358985
17,-0.15850579802099674
18,12.947674149915267
2,1, 1, 1, 0,14, 0.00,15.00,Tuesday
7,-1.9250000000000003
8,2080.536760270814
9,1.0
10,210.73276284570657
11,1.0
12,210.73276284570657
13,2080.536760270814
14,12.778196048812316
15,7.493602796975341
16,12.633793005427492
17,-0.15677887357117016
18,12.91169117909544
2,1, 1, 1, 0,14,15.00,30.00,Tuesday
7,-1.6500000000000002
8,1848.1882299855229
9,1.0
10,189.38488290342594
11,1.0
12,189.38488290342594
13,1848.1882299855229
14,12.75326043088729
15,7.101190955294718
16,12.386941443276044
17,0.010471977276893086
18,12.877511859762775
2,1, 1, 1, 0,14,30.00,45.00,Tuesday
7,-1.375
8,1762.648528253172
9,1.0
10,179.3940297802914
11,1.0
12,179.3940297802914
13,1762.648528253172
14,12.735920830751287
15,7.224505802974485
16,12.322123908346385
17,0.2637064977183172
18,12.846896392727724
2,1, 1, 1, 0,14,45.00,60.00,Tuesday
7,-1.1
8,1676.1315823352277
9,1.0
10,169.43349014176136
11,1.0
12,169.43349014176136
13,1676.1315823352277
14,12.714623260657034
15,7.326119186053457
16,12.247916409509742
17,0.5163249403976806
18,12.819712691229457
2,1, 1, 1, 0,15, 0.00,15.00,Tuesday
7,-1.1
8,1764.2336451764168
9,1.0
10,178.15692317953907
11,1.0
12,178.15692317953907
13,1764.2336451764168
14,12.776621512621985
15,8.145181743874773
16,12.350324100567719
17,0.6327315711108668
18,12.801521473168603
2,1, 1, 1, 0,15,15.00,30.00,Tuesday
7,-1.1
8,1657.44905719483
9,1.0
10,166.40516310952945
11,1.0
12,166.40516310952945
13,1657.44905719483
14,12.717034691895952
15,7.784816878480742
16,12.231042144378819
17,0.5933767480552206
18,12.785322070037399
2,1, 1, 1, 0,15,30.00,45.00,Tuesday
7,-1.1
8,1397.5312645024297
9,1.0
10,140.8967369711617
11,1.0
12,140.8967369711617
13,1397.5312645024297
14,12.591252292517265
15,6.581625592669394
16,11.895674097607185
17,0.41471332286710096
18,12.757154325212767
2,1, 1, 1, 0,15,45.00,60.00,Tuesday
7,-1.1
8,1150.0543343484979
9,1.0
10,116.57355796743004
11,1.0
12,116.57355796743004
13,1150.0543343484979
14,12.474306076711843
15,5.379246048222838
16,11.557708041390129
17,0.23844239090760767
18,12.705737892760898
2,1, 1, 1, 0,16, 0.00,15.00,Tuesday
7,-1.1
8,912.7487358563033
9,1.0
10,93.14939272689483
11,1.0
12,93.14939272689483
13,912.7487358563033
14,12.353499450016987
15,4.332837538270512
16,11.246654305644882
17,0.1403009213772748
18,12.634134215768342
2,1, 1, 1, 0,16,15.00,30.00,Tuesday
7,-1.1
8,566.636069103818
9,1.0
10,57.94047897402063
11,1.0
12,57.94047897402063
13,566.636069103818
14,12.137734015583057
15,2.216213419000465
16,10.778928821862792
17,-0.08213483388300347
18,12.53716563470791
2,1, 1, 1, 0,16,30.00,45.00,Tuesday
7,-1.1
8,439.3280485110057
9,1.0
10,45.38251793443488
11,1.0
12,45.38251793443488
13,439.3280485110057
14,12.047457839330854
15,1.613957118535619
16,10.549496143017052
17,-0.09838071471915555
18,12.430227931707382
2,1, 1, 1, 0,16,45.00,60.00,Tuesday
7,-1.1
8,306.6800834820858
9,1.0
10,32.02625108222755
11,1.0
12,32.02625108222755
13,306.6800834820858
14,11.917724537583285
15,0.7607894314181057
16,10.345349273945772
17,-0.1138529362451095
18,12.326133708831643
2,1, 1, 1, 0,17, 0.00,15.00,Tuesday
7,-1.1
8,168.21359625367695
9,1.0
10,17.762198626050539
11,1.0
12,17.762198626050539
13,168.21359625367695
14,11.7646912705765
15,-0.4768993781736387
16,10.093162127997858
17,-0.24198925002019679
18,12.22267298109732
2,1, 1, 1, 0,17,15.00,30.00,Tuesday
7,-1.1
8,0.0
9,0.0
10,0.0
11,0.0
12,0.0
13,0.0
14,11.561583953684114
15,-2.3075918201220597
16,9.776190516858378
17,-0.48339416310398067
18,12.10601175832656
2,1, 1, 1, 0,17,30.00,45.00,Tuesday
7,-1.1
8,0.0
9,0.0
10,0.0
11,0.0
12,0.0
13,0.0
14,11.494262013882713
15,-2.4368890079609177
16,9.67085833141141
17,-0.45432406408144745
18,11.992153570620135
2,1, 1, 1, 0,17,45.00,60.00,Tuesday
7,-1.1
8,0.0
9,0.0
10,0.0
11,0.0
12,0.0
13,0.0
14,11.410713915375297
15,-2.616489018568606
16,9.612769526568968
17,-0.4125657447482354
18,11.895817384397909
2,1, 1, 1, 0,18, 0.00,15.00,Tuesday
7,-1.25
8,0.0
9,0.0
10,0.0
11,0.0
12,0.0
13,0.0
14,11.338872835376263
15,-2.7657824631215219
16,9.518421471187878
17,-0.56253780618988
18,11.81734440932681
2,1, 1, 1, 0,18,15.00,30.00,Tuesday
7,-1.4
8,0.0
9,0.0
10,0.0
11,0.0
12,0.0
13,0.0
14,11.272973647964119
15,-2.918250120693096
16,9.437897492381012
17,-0.7001554322672519
18,11.750725181156712
2,1, 1, 1, 0,18,30.00,45.00,Tuesday
7,-1.5499999999999999
8,0.0
9,0.0
10,0.0
11,0.0
12,0.0
13,0.0
14,11.211438617641969
15,-3.070427539362803
16,9.362125000343895
17,-0.8374830619088698
18,11.69015766488767
2,1, 1, 1, 0,18,45.00,60.00,Tuesday
7,-1.7
8,0.0
9,0.0
10,0.0
11,0.0
12,0.0
13,0.0
14,11.1518540675653
15,-3.222768668076032
16,9.289347510795608
17,-0.9742506639595376
18,11.632216934704259
2,1, 1, 1, 0,19, 0.00,15.00,Tuesday
7,-1.825
8,0.0
9,0.0
10,0.0
11,0.0
12,0.0
13,0.0
14,11.11415670849822
15,-3.0929092591900795
16,9.208978421715301
17,-1.1530573462381427
18,11.578727509593965
2,1, 1, 1, 0,19,15.00,30.00,Tuesday
7,-1.9500000000000002
8,0.0
9,0.0
10,0.0
11,0.0
12,0.0
13,0.0
14,11.076971211219185
15,-3.042140153265407
16,9.140613457242353
17,-1.319644796578359
18,11.531666741528092
2,1, 1, 1, 0,19,30.00,45.00,Tuesday
7,-2.075
8,0.0
9,0.0
10,0.0
11,0.0
12,0.0
13,0.0
14,11.03412020336447
15,-3.1203417157272237
16,9.085723191153534
17,-1.4445803658612704
18,11.489496866298964
2,1, 1, 1, 0,19,45.00,60.00,Tuesday
7,-2.2
8,0.0
9,0.0
10,0.0
11,0.0
12,0.0
13,0.0
14,10.994931549262699
15,-3.1120885485021159
16,9.022127716010573
17,-1.6022004797989098
18,11.449171600525283
2,1, 1, 1, 0,20, 0.00,15.00,Tuesday
7,-1.9250000000000003
8,0.0
9,0.0
10,0.0
11,0.0
12,0.0
13,0.0
14,10.971824069410012
15,-2.814351218278039
16,9.03401590295016
17,-1.3874453915833556
18,11.411307675801977
2,1, 1, 1, 0,20,15.00,30.00,Tuesday
7,-1.6500000000000002
8,0.0
9,0.0
10,0.0
11,0.0
12,0.0
13,0.0
14,10.948042103340681
15,-2.519323637450831
16,9.046423517308256
17,-1.1630583800878185
18,11.37646290417787
2,1, 1, 1, 0,20,30.00,45.00,Tuesday
7,-1.375
8,0.0
9,0.0
10,0.0
11,0.0
12,0.0
13,0.0
14,10.926090374920353
15,-2.225380247331901
16,9.059996095571933
17,-0.9367847406057308
18,11.344231520016037
2,1, 1, 1, 0,20,45.00,60.00,Tuesday
7,-1.1
8,0.0
9,0.0
10,0.0
11,0.0
12,0.0
13,0.0
14,10.905635289157808
15,-1.9325609844200716
16,9.075446565219523
17,-0.7086317873425401
18,11.313940592291836
2,1, 1, 1, 0,21, 0.00,15.00,Tuesday
7,-1.25
8,0.0
9,0.0
10,0.0
11,0.0
12,0.0
13,0.0
14,10.847770182167978
15,-2.1993360779622446
16,9.033320625037448
17,-0.7810245789598866
18,11.279054058384859
2,1, 1, 1, 0,21,15.00,30.00,Tuesday
7,-1.4
8,0.0
9,0.0
10,0.0
11,0.0
12,0.0
13,0.0
14,10.790705351872744
15,-2.40818897740609
16,8.975217894752007
17,-0.8780488789082028
18,11.235218924965594
2,1, 1, 1, 0,21,30.00,45.00,Tuesday
7,-1.5499999999999999
8,0.0
9,0.0
10,0.0
11,0.0
12,0.0
13,0.0
14,10.721197291851923
15,-2.7332595783775255
16,8.92187272408512
17,-0.937996733967509
18,11.18187269359626
2,1, 1, 1, 0,21,45.00,60.00,Tuesday
7,-1.7
8,0.0
9,0.0
10,0.0
11,0.0
12,0.0
13,0.0
14,10.646408748109377
15,-3.1627918609156118
16,8.867247892992168
17,-0.9652125951542985
18,11.12135038900817
2,1, 1, 1, 0,22, 0.00,15.00,Tuesday
7,-1.5499999999999999
8,0.0
9,0.0
10,0.0
11,0.0
12,0.0
13,0.0
14,10.63328703678768
15,-2.70139318656906
16,8.816641276987014
17,-0.9483907860646923
18,11.066810945728659
2,1, 1, 1, 0,22,15.00,30.00,Tuesday
7,-1.4
8,0.0
9,0.0
10,0.0
11,0.0
12,0.0
13,0.0
14,10.611031706234906
15,-2.3888445365197756
16,8.79994771621682
17,-0.894303409700683
18,11.025076474216414
2,1, 1, 1, 0,22,30.00,45.00,Tuesday
7,-1.25
8,0.0
9,0.0
10,0.0
11,0.0
12,0.0
13,0.0
14,10.588769263426528
15,-2.1766204905789054
16,8.792859798432687
17,-0.8010816441566249
18,10.99352915901934
2,1, 1, 1, 0,22,45.00,60.00,Tuesday
7,-1.1
8,0.0
9,0.0
10,0.0
11,0.0
12,0.0
13,0.0
14,10.570403696233593
15,-1.9081905923854877
16,8.783950715180481
17,-0.7228706296874634
18,10.966802242481015
2,1, 1, 1, 0,23, 0.00,15.00,Tuesday
7,-1.25
8,0.0
9,0.0
10,0.0
11,0.0
12,0.0
13,0.0
14,10.511979209469711
15,-2.211296111320789
16,8.702811455021731
17,-1.0138654799397955
18,10.934672866423675
2,1, 1, 1, 0,23,15.00,30.00,Tuesday
7,-1.4
8,0.0
9,0.0
10,0.0
11,0.0
12,0.0
13,0.0
14,10.455697042888878
15,-2.5160152525425829
16,8.607761228461527
17,-1.317892582807417
18,10.892507255990525
2,1, 1, 1, 0,23,30.00,45.00,Tuesday
7,-1.5499999999999999
8,0.0
9,0.0
10,0.0
11,0.0
12,0.0
13,0.0
14,10.394549715716125
15,-2.821384453025583
16,8.510628549800686
17,-1.6236911482295114
18,10.841822191880145
2,1, 1, 1, 0,23,45.00,60.00,Tuesday
7,-1.7
8,0.0
9,0.0
10,0.0
11,0.0
12,0.0
13,0.0
14,10.329589907863842
15,-3.127099279952438
16,8.40914934035527
17,-1.9319096292995255
18,10.785699880355893
2,1, 1, 1, 0,24, 0.00,15.00,Tuesday
7,-1.7
8,0.0
9,0.0
10,0.0
11,0.0
12,0.0
13,0.0
14,10.279656591590689
15,-3.181477262630815
16,8.349832222171813
17,-1.9987174377675956
18,10.729518882832929
2,1, 1, 1, 0,24,15.00,30.00,Tuesday
7,-1.7
8,0.0
9,0.0
10,0.0
11,0.0
12,0.0
13,0.0
14,10.227803155390147
15,-3.2363443214729288
16,8.295696393805713
17,-2.0629778437420329
18,10.676004939381848
2,1, 1, 1, 0,24,30.00,45.00,Tuesday
7,-1.7
8,0.0
9,0.0
10,0.0
11,0.0
12,0.0
13,0.0
14,10.177147191045093
15,-3.2911075051479008
16,8.241474618525672
17,-2.1271054474210588
18,10.624962944897357
2,1, 1, 1, 0,24,45.00,60.00,Tuesday
7,-1.7
8,0.0
9,0.0
10,0.0
11,0.0
12,0.0
13,0.0
14,10.127337787873233
15,-3.3458760542824939
16,8.188253755860615
17,-2.1909426408685706
18,10.575312509438888
End of Data
 Number of Records Written=        1152
