Program Version,EnergyPlus, Version 9.5.0-de239b2e5f, YMD=2023.02.17 15:25
1,5,Environment Title[],Latitude[deg],Longitude[deg],Time Zone[],Elevation[m]
2,8,Day of Simulation[],Month[],Day of Month[],DST Indicator[1=yes 0=no],Hour[],StartMinute[],EndMinute[],DayType
3,5,Cumulative Day of Simulation[],Month[],Day of Month[],DST Indicator[1=yes 0=no],DayType  ! When Daily Report Variables Requested
4,2,Cumulative Days of Simulation[],Month[]  ! When Monthly Report Variables Requested
5,1,Cumulative Days of Simulation[] ! When Run Period Report Variables Requested
6,1,Calendar Year of Simulation[] ! When Annual Report Variables Requested
7,1,Environment,Site Outdoor Air Drybulb Temperature [C] !TimeStep
8,1,ZONE ONE,Zone Windows Total Transmitted Solar Radiation Rate [W] !TimeStep
9,1,ZN001:WALL001,Surface Outside Face Sunlit Fraction [] !TimeStep
10,1,ZN001:WALL001,Surface Outside Face Incident Solar Radiation Rate per Area [W/m2] !TimeStep
11,1,ZN001:WALL001:WIN001,Surface Outside Face Sunlit Fraction [] !TimeStep
12,1,ZN001:WALL001:WIN001,Surface Outside Face Incident Solar Radiation Rate per Area [W/m2] !TimeStep
13,1,ZN001:WALL001:WIN001,Surface Window Transmitted Solar Radiation Rate [W] !TimeStep
14,1,ZN001:WALL001,Surface Inside Face Temperature [C] !TimeStep
15,1,ZN001:WALL001,Surface Outside Face Temperature [C] !TimeStep
16,1,ZN001:WALL001:WIN001,Surface Inside Face Temperature [C] !TimeStep
17,1,ZN001:WALL001:WIN001,Surface Outside Face Temperature [C] !TimeStep
18,1,ZONE ONE,Zone Mean Air Temperature [C] !TimeStep
End of Data Dictionary
1,RUN PERIOD 1,  41.98, -87.92,  -6.00, 201.00
2,1, 1, 1, 0, 1, 0.00,15.00,Tuesday
7,-4.324999999999999
8,0.0
9,0.0
10,0.0
11,0.0
12,0.0
13,0.0
14,8.400336604606319
15,-5.851049196097946
16,4.971581951652809
17,-3.4342984797433475
18,8.910496365893503
2,1, 1, 1, 0, 1,15.00,30.00,Tuesday
7,-6.949999999999999
8,0.0
9,0.0
10,0.0
11,0.0
12,0.0
13,0.0
14,8.209939185424723
15,-8.318092318458083
16,4.267160996918449
17,-5.440516706611561
18,8.798896012217665
2,1, 1, 1, 0, 1,30.00,45.00,Tuesday
7,-9.575
8,0.0
9,0.0
10,0.0
11,0.0
12,0.0
13,0.0
14,7.998175965063256
15,-10.793113954645689
16,3.5552429615302119
17,-7.452626591738294
18,8.654576739307004
2,1, 1, 1, 0, 1,45.00,60.00,Tuesday
7,-12.2
8,0.0
9,0.0
10,0.0
11,0.0
12,0.0
13,0.0
14,7.769810144536714
15,-13.274785052537738
16,2.827938566720718
17,-9.472450983329964
18,8.488097689478528
2,1, 1, 1, 0, 2, 0.00,15.00,Tuesday
7,-12.075
8,0.0
9,0.0
10,0.0
11,0.0
12,0.0
13,0.0
14,7.688965198214076
15,-13.075507136759758
16,2.768932927579158
17,-9.319438650901646
18,8.338818672456276
2,1, 1, 1, 0, 2,15.00,30.00,Tuesday
7,-11.95
8,0.0
9,0.0
10,0.0
11,0.0
12,0.0
13,0.0
14,7.59546194999468
15,-12.898666492127568
16,2.734820478920142
17,-9.188524242489052
18,8.223647341388278
2,1, 1, 1, 0, 2,30.00,45.00,Tuesday
7,-11.825
8,0.0
9,0.0
10,0.0
11,0.0
12,0.0
13,0.0
14,7.520165875164559
15,-12.720651002176929
16,2.707550450197459
17,-9.056696088517584
18,8.135963325520639
2,1, 1, 1, 0, 2,45.00,60.00,Tuesday
7,-11.7
8,0.0
9,0.0
10,0.0
11,0.0
12,0.0
13,0.0
14,7.4564927021601739
15,-12.542729299247658
16,2.697299027185977
17,-8.931439386061357
18,8.063875287805198
2,1, 1, 1, 0, 3, 0.00,15.00,Tuesday
7,-11.549999999999999
8,0.0
9,0.0
10,0.0
11,0.0
12,0.0
13,0.0
14,7.394656571533971
15,-12.415383655687009
16,2.6915746026259059
17,-8.769792631131338
18,7.99809333490738
2,1, 1, 1, 0, 3,15.00,30.00,Tuesday
7,-11.399999999999999
8,0.0
9,0.0
10,0.0
11,0.0
12,0.0
13,0.0
14,7.335969651241245
15,-12.289355857273718
16,2.6909627125387489
17,-8.617489287012404
18,7.934316500024169
2,1, 1, 1, 0, 3,30.00,45.00,Tuesday
7,-11.25
8,0.0
9,0.0
10,0.0
11,0.0
12,0.0
13,0.0
14,7.278174891800161
15,-12.164784199723688
16,2.696764602024871
17,-8.474945926012197
18,7.871527388359092
2,1, 1, 1, 0, 3,45.00,60.00,Tuesday
7,-11.1
8,0.0
9,0.0
10,0.0
11,0.0
12,0.0
13,0.0
14,7.220833745801724
15,-12.041718559918487
16,2.6946417085502505
17,-8.312632283623941
18,7.809553003428758
2,1, 1, 1, 0, 4, 0.00,15.00,Tuesday
7,-11.1
8,0.0
9,0.0
10,0.0
11,0.0
12,0.0
13,0.0
14,7.159524073403487
15,-12.015248895245973
16,2.6271870649460427
17,-8.368724334991044
18,7.747207152759411
2,1, 1, 1, 0, 4,15.00,30.00,Tuesday
7,-11.1
8,0.0
9,0.0
10,0.0
11,0.0
12,0.0
13,0.0
14,7.098561732449077
15,-11.989799799470319
16,2.5647256187718314
17,-8.423365800285865
18,7.684087273699513
2,1, 1, 1, 0, 4,30.00,45.00,Tuesday
7,-11.1
8,0.0
9,0.0
10,0.0
11,0.0
12,0.0
13,0.0
14,7.037287963071066
15,-11.965793923612982
16,2.502754961594974
17,-8.47695305646954
18,7.620434401188052
2,1, 1, 1, 0, 4,45.00,60.00,Tuesday
7,-11.1
8,0.0
9,0.0
10,0.0
11,0.0
12,0.0
13,0.0
14,6.975874887861319
15,-11.943100737953781
16,2.441046413673746
17,-8.529285833838572
18,7.556598769883565
2,1, 1, 1, 0, 5, 0.00,15.00,Tuesday
7,-10.975
8,0.0
9,0.0
10,0.0
11,0.0
12,0.0
13,0.0
14,6.920201604487134
15,-11.821383730360104
16,2.428169369471675
17,-8.451658196186827
18,7.494074577683216
2,1, 1, 1, 0, 5,15.00,30.00,Tuesday
7,-10.85
8,0.0
9,0.0
10,0.0
11,0.0
12,0.0
13,0.0
14,6.864824393165675
15,-11.699718328651703
16,2.412044868729595
17,-8.365846997300878
18,7.433409128503392
2,1, 1, 1, 0, 5,30.00,45.00,Tuesday
7,-10.725
8,0.0
9,0.0
10,0.0
11,0.0
12,0.0
13,0.0
14,6.810623893903086
15,-11.578026652431833
16,2.396124205721833
17,-8.278999808802383
18,7.374298646613305
2,1, 1, 1, 0, 5,45.00,60.00,Tuesday
7,-10.6
8,0.0
9,0.0
10,0.0
11,0.0
12,0.0
13,0.0
14,6.757385395250241
15,-11.456343641747325
16,2.3810611598072457
17,-8.191821541459263
18,7.316285719297706
2,1, 1, 1, 0, 6, 0.00,15.00,Tuesday
7,-10.6
8,0.0
9,0.0
10,0.0
11,0.0
12,0.0
13,0.0
14,6.6973208143503879
15,-11.457497083921066
16,2.331699700982199
17,-8.197377500192829
18,7.257627184706062
2,1, 1, 1, 0, 6,15.00,30.00,Tuesday
7,-10.6
8,0.0
9,0.0
10,0.0
11,0.0
12,0.0
13,0.0
14,6.637911949933268
15,-11.458612451976597
16,2.284011925743471
17,-8.209011068898178
18,7.197599736818572
2,1, 1, 1, 0, 6,30.00,45.00,Tuesday
7,-10.6
8,0.0
9,0.0
10,0.0
11,0.0
12,0.0
13,0.0
14,6.577960833301717
15,-11.459770194632532
16,2.2365890142584705
17,-8.221256390848908
18,7.136537828642501
2,1, 1, 1, 0, 6,45.00,60.00,Tuesday
7,-10.6
8,0.0
9,0.0
10,0.0
11,0.0
12,0.0
13,0.0
14,6.517723103720188
15,-11.460924517866245
16,2.188840336201906
17,-8.233677721107484
18,7.075001030915143
2,1, 1, 1, 0, 7, 0.00,15.00,Tuesday
7,-10.6
8,0.0
9,0.0
10,0.0
11,0.0
12,0.0
13,0.0
14,6.459308989861139
15,-11.438991253057626
16,2.128396214911845
17,-8.279237416541378
18,7.013572043490014
2,1, 1, 1, 0, 7,15.00,30.00,Tuesday
7,-10.6
8,0.0
9,0.0
10,0.0
11,0.0
12,0.0
13,0.0
14,6.400802888960093
15,-11.418198229956929
16,2.07050538910471
17,-8.325327751334158
18,6.952568740568771
2,1, 1, 1, 0, 7,30.00,45.00,Tuesday
7,-10.6
8,0.0
9,0.0
10,0.0
11,0.0
12,0.0
13,0.0
14,6.342581487620217
15,-11.398466726915716
16,2.013288275190405
17,-8.370418661442386
18,6.891997850723231
2,1, 1, 1, 0, 7,45.00,60.00,Tuesday
7,-10.6
8,0.0
9,0.0
10,0.0
11,0.0
12,0.0
13,0.0
14,6.284660034278034
15,-11.379732971357639
16,1.9567126186744873
17,-8.414273953535883
18,6.831779037324659
2,1, 1, 1, 0, 8, 0.00,15.00,Tuesday
7,-10.45
8,0.0
9,0.0
10,0.0
11,0.0
12,0.0
13,0.0
14,6.226513109096603
15,-11.329734038407393
16,1.9392088474477874
17,-8.355816173291146
18,6.771842489993847
2,1, 1, 1, 0, 8,15.00,30.00,Tuesday
7,-10.3
8,215.5879980222353
9,1.0
10,22.819555959623899
11,1.0
12,22.819555959623899
13,215.5879980222353
14,6.300109329958235
15,-9.655593048728076
16,2.2069560765738176
17,-8.03770947357458
18,6.73299841631672
2,1, 1, 1, 0, 8,30.00,45.00,Tuesday
7,-10.15
8,1058.5392312119832
9,1.0
10,109.75755355442667
11,1.0
12,109.75755355442667
13,1058.5392312119832
14,6.734858415971859
15,-3.278709164831598
16,3.3449857927034829
17,-7.008257244539095
18,6.773521384508895
2,1, 1, 1, 0, 8,45.00,60.00,Tuesday
7,-10.0
8,1924.8399544048012
9,1.0
10,195.8764694434918
11,1.0
12,195.8764694434918
13,1924.8399544048012
14,7.29612290733343
15,3.2009640513643466
16,4.582326446355864
17,-5.965699618264637
18,6.900755123942748
2,1, 1, 1, 0, 9, 0.00,15.00,Tuesday
7,-9.725
8,2788.1568045040946
9,1.0
10,278.97248314719988
11,1.0
12,278.97248314719988
13,2788.1568045040946
14,7.764807738964223
15,8.372687187460972
16,5.8121878768162109
17,-5.055979765943562
18,7.088738607598959
2,1, 1, 1, 0, 9,15.00,30.00,Tuesday
7,-9.45
8,3698.191694964431
9,1.0
10,364.91995730569456
11,1.0
12,364.91995730569456
13,3698.191694964431
14,8.249123665148496
15,13.449547523289992
16,7.168955690303278
17,-4.119313517367061
18,7.329559383593148
2,1, 1, 1, 0, 9,30.00,45.00,Tuesday
7,-9.175
8,4300.2673206835229
9,1.0
10,420.35879993239237
11,1.0
12,420.35879993239237
13,4300.2673206835229
14,8.60880371418259
15,16.20595885513873
16,8.098209143140423
17,-3.527276261970769
18,7.597034765172442
2,1, 1, 1, 0, 9,45.00,60.00,Tuesday
7,-8.9
8,4925.271017558337
9,1.0
10,478.00138373643099
11,1.0
12,478.00138373643099
13,4925.271017558337
14,9.024777528412715
15,19.20019100949731
16,9.0069887110173
17,-2.92642110093351
18,7.8789886412024929
2,1, 1, 1, 0,10, 0.00,15.00,Tuesday
7,-8.350000000000002
8,5563.47927965646
9,1.0
10,536.9185644770597
11,1.0
12,536.9185644770597
13,5563.47927965646
14,9.391475903849296
15,20.314198611593758
16,9.936188301484606
17,-2.306167802570826
18,8.176164372894935
2,1, 1, 1, 0,10,15.00,30.00,Tuesday
7,-7.800000000000001
8,6223.735720388039
9,1.0
10,598.0969199229219
11,1.0
12,598.0969199229219
13,6223.735720388039
14,9.79045554213906
15,21.564520698569067
16,10.880121684456526
17,-1.6811162203244977
18,8.31698014166397
2,1, 1, 1, 0,10,30.00,45.00,Tuesday
7,-7.25
8,6656.871608685562
9,1.0
10,637.6133352894237
11,1.0
12,637.6133352894237
13,6656.871608685562
14,10.064436580815338
15,21.620486084587858
16,11.556537554857414
17,-1.2414398011131312
18,8.589013124212264
2,1, 1, 1, 0,10,45.00,60.00,Tuesday
7,-6.7
8,7083.627635407371
9,1.0
10,676.6412284283772
11,1.0
12,676.6412284283772
13,7083.627635407371
14,10.330482314657554
15,21.777484345510538
16,12.177208889619579
17,-0.8068226357927983
18,8.791008423462103
2,1, 1, 1, 0,11, 0.00,15.00,Tuesday
7,-6.275
8,7502.619881932496
9,1.0
10,715.0112779846514
11,1.0
12,715.0112779846514
13,7502.619881932496
14,10.750755471514394
15,23.877205799198916
16,12.88425366754592
17,-0.13574710333921304
18,9.256241554705776
2,1, 1, 1, 0,11,15.00,30.00,Tuesday
7,-5.85
8,7911.749570952164
9,1.0
10,752.5077794605232
11,1.0
12,752.5077794605232
13,7911.749570952164
14,11.22418618663226
15,25.814522043631933
16,13.641149716601604
17,0.5151781294397324
18,9.690861251781808
2,1, 1, 1, 0,11,30.00,45.00,Tuesday
7,-5.425
8,7790.156876744835
9,1.0
10,742.5988714321785
11,1.0
12,742.5988714321785
13,7790.156876744835
14,11.515483366525503
15,25.66656334720512
16,13.903359735785216
17,0.8425166576485594
18,10.096572378259971
2,1, 1, 1, 0,11,45.00,60.00,Tuesday
7,-5.0
8,7616.415097398768
9,1.0
10,727.8169025450712
11,1.0
12,727.8169025450712
13,7616.415097398768
14,11.793789724885402
15,25.438504280607729
16,14.073099200708953
17,1.1250389998104993
18,10.456512931316045
2,1, 1, 1, 0,12, 0.00,15.00,Tuesday
7,-4.575
8,7317.63187899619
9,1.0
10,700.3759009170325
11,1.0
12,700.3759009170325
13,7317.63187899619
14,11.99439167126721
15,24.696687430425166
16,14.10354959140966
17,1.354808799780244
18,10.766511021209024
2,1, 1, 1, 0,12,15.00,30.00,Tuesday
7,-4.15
8,7096.045470548525
9,1.0
10,681.6705029034473
11,1.0
12,681.6705029034473
13,7096.045470548525
14,12.215099237037946
15,24.367077727423565
16,14.199889299860331
17,1.6469234363853503
18,11.039203384365536
2,1, 1, 1, 0,12,30.00,45.00,Tuesday
7,-3.7249999999999998
8,6229.736928425406
9,1.0
10,602.01865277251
11,1.0
12,602.01865277251
13,6229.736928425406
14,12.128920753331162
15,21.33839704324464
16,13.62697419960034
17,1.5043362203670654
18,11.249687853075163
2,1, 1, 1, 0,12,45.00,60.00,Tuesday
7,-3.3
8,5087.904404183855
9,1.0
10,493.55004396206007
11,1.0
12,493.55004396206007
13,5087.904404183855
14,11.93497670088727
15,17.16140064874517
16,12.617429187998198
17,1.1217390302563218
18,11.36543703208498
2,1, 1, 1, 0,13, 0.00,15.00,Tuesday
7,-3.0249999999999996
8,4201.063393949559
9,1.0
10,412.335026418112
11,1.0
12,412.335026418112
13,4201.063393949559
14,11.801882760423956
15,14.3182914181619
16,11.80206726238896
17,0.8748896142036529
18,11.405311326788011
2,1, 1, 1, 0,13,15.00,30.00,Tuesday
7,-2.75
8,3076.892122430221
9,1.0
10,305.94037763660148
11,1.0
12,305.94037763660148
13,3076.892122430221
14,11.467838682976249
15,10.14605809177905
16,10.622629763962664
17,0.4106320556685432
18,11.38068988211008
2,1, 1, 1, 0,13,30.00,45.00,Tuesday
7,-2.475
8,2809.0935899127655
9,1.0
10,281.0763483922329
11,1.0
12,281.0763483922329
13,2809.0935899127655
14,11.444916729482982
15,9.63519047461787
16,10.373868628078413
17,0.5467884544647745
18,11.334092551236889
2,1, 1, 1, 0,13,45.00,60.00,Tuesday
7,-2.2
8,2546.8736709552365
9,1.0
10,256.7721209415886
11,1.0
12,256.7721209415886
13,2546.8736709552365
14,11.404610029113418
15,9.028733159479927
16,10.211095839582299
17,0.7100532872038912
18,11.294094611512254
2,1, 1, 1, 0,14, 0.00,15.00,Tuesday
7,-1.9250000000000003
8,2080.536760270814
9,1.0
10,210.73276284570657
11,1.0
12,210.73276284570657
13,2080.536760270814
14,11.243493007906329
15,7.482753575230597
16,9.774748581756171
17,0.6784945259469168
18,11.254975211326176
2,1, 1, 1, 0,14,15.00,30.00,Tuesday
7,-1.6500000000000002
8,1848.1882299855229
9,1.0
10,189.38488290342594
11,1.0
12,189.38488290342594
13,1848.1882299855229
14,11.199127923177706
15,7.077771669414122
16,9.588903423526176
17,0.82601573679284
18,11.2178609203366
2,1, 1, 1, 0,14,30.00,45.00,Tuesday
7,-1.375
8,1762.648528253172
9,1.0
10,179.3940297802914
11,1.0
12,179.3940297802914
13,1762.648528253172
14,11.183879064967388
15,7.2043030317271949
16,9.568319299044333
17,1.0703884417022778
18,11.185301837677395
2,1, 1, 1, 0,14,45.00,60.00,Tuesday
7,-1.1
8,1676.1315823352277
9,1.0
10,169.43349014176136
11,1.0
12,169.43349014176136
13,1676.1315823352277
14,11.164091038100564
15,7.304563520376895
16,9.540762372012523
17,1.3127568928056235
18,11.156895210684736
2,1, 1, 1, 0,15, 0.00,15.00,Tuesday
7,-1.1
8,1764.2336451764168
9,1.0
10,178.15692317953907
11,1.0
12,178.15692317953907
13,1764.2336451764168
14,11.234522792932524
15,8.12653891662747
16,9.653800608669713
17,1.4512273351584782
18,11.137309630469085
2,1, 1, 1, 0,15,15.00,30.00,Tuesday
7,-1.1
8,1657.44905719483
9,1.0
10,166.40516310952945
11,1.0
12,166.40516310952945
13,1657.44905719483
14,11.172574708042865
15,7.762884851485641
16,9.54400094782693
17,1.4192657104584897
18,11.120160680036629
2,1, 1, 1, 0,15,30.00,45.00,Tuesday
7,-1.1
8,1397.5312645024297
9,1.0
10,140.8967369711617
11,1.0
12,140.8967369711617
13,1397.5312645024297
14,11.039609841224943
15,6.557587680102935
16,9.22528933891158
17,1.241052780901839
18,11.092961069506857
2,1, 1, 1, 0,15,45.00,60.00,Tuesday
7,-1.1
8,1150.0543343484979
9,1.0
10,116.57355796743004
11,1.0
12,116.57355796743004
13,1150.0543343484979
14,10.90418356147385
15,5.352020743647605
16,8.902276859813697
17,1.0560252730003868
18,11.048590284541737
2,1, 1, 1, 0,16, 0.00,15.00,Tuesday
7,-1.1
8,912.7487358563033
9,1.0
10,93.14939272689483
11,1.0
12,93.14939272689483
13,912.7487358563033
14,10.78580188142875
15,4.305897379071219
16,8.618558830563075
17,0.960313866944432
18,10.985724813942904
2,1, 1, 1, 0,16,15.00,30.00,Tuesday
7,-1.1
8,566.636069103818
9,1.0
10,57.94047897402063
11,1.0
12,57.94047897402063
13,566.636069103818
14,10.56876302129656
15,2.1864498778999748
16,8.175781725677098
17,0.7337758182703738
18,10.896909574355329
2,1, 1, 1, 0,16,30.00,45.00,Tuesday
7,-1.1
8,439.3280485110057
9,1.0
10,45.38251793443488
11,1.0
12,45.38251793443488
13,439.3280485110057
14,10.482535596489923
15,1.5820985478229695
16,7.983561370204029
17,0.7303163461050417
18,10.796277537336098
2,1, 1, 1, 0,16,45.00,60.00,Tuesday
7,-1.1
8,306.6800834820858
9,1.0
10,32.02625108222755
11,1.0
12,32.02625108222755
13,306.6800834820858
14,10.354523511975526
15,0.7255507501173883
16,7.808825376151049
17,0.7276230630035343
18,10.696821882144756
2,1, 1, 1, 0,17, 0.00,15.00,Tuesday
7,-1.1
8,168.21359625367695
9,1.0
10,17.762198626050539
11,1.0
12,17.762198626050539
13,168.21359625367695
14,10.202056966199823
15,-0.5164664228148063
16,7.576982374275985
17,0.6197785146409842
18,10.59684902250077
2,1, 1, 1, 0,17,15.00,30.00,Tuesday
7,-1.1
8,0.0
9,0.0
10,0.0
11,0.0
12,0.0
13,0.0
14,9.997876622047669
15,-2.349414033074684
16,7.256733237631579
17,0.36802426472888785
18,10.482730450022654
2,1, 1, 1, 0,17,30.00,45.00,Tuesday
7,-1.1
8,0.0
9,0.0
10,0.0
11,0.0
12,0.0
13,0.0
14,9.933130415437372
15,-2.4807975641941186
16,7.185401297744818
17,0.4226090804345404
18,10.371062160565693
2,1, 1, 1, 0,17,45.00,60.00,Tuesday
7,-1.1
8,0.0
9,0.0
10,0.0
11,0.0
12,0.0
13,0.0
14,9.85134639846469
15,-2.664175654015824
16,7.151255003872961
17,0.4903484864140637
18,10.276827186136327
2,1, 1, 1, 0,18, 0.00,15.00,Tuesday
7,-1.25
8,0.0
9,0.0
10,0.0
11,0.0
12,0.0
13,0.0
14,9.780998721190745
15,-2.813036623373304
16,7.047614665825563
17,0.35360466118436309
18,10.199991314304223
2,1, 1, 1, 0,18,15.00,30.00,Tuesday
7,-1.4
8,0.0
9,0.0
10,0.0
11,0.0
12,0.0
13,0.0
14,9.716333970803222
15,-2.9655698626258766
16,6.959951723280653
17,0.22346365694590987
18,10.13454529801052
2,1, 1, 1, 0,18,30.00,45.00,Tuesday
7,-1.5499999999999999
8,0.0
9,0.0
10,0.0
11,0.0
12,0.0
13,0.0
14,9.655786071269267
15,-3.117764386050675
16,6.876962045244909
17,0.0942182378206553
18,10.074860280976342
2,1, 1, 1, 0,18,45.00,60.00,Tuesday
7,-1.7
8,0.0
9,0.0
10,0.0
11,0.0
12,0.0
13,0.0
14,9.597037715098893
15,-3.27012874629728
16,6.796677033277092
17,-0.0343048806699926
18,10.01765852816099
2,1, 1, 1, 0,19, 0.00,15.00,Tuesday
7,-1.825
8,0.0
9,0.0
10,0.0
11,0.0
12,0.0
13,0.0
14,9.560408414040435
15,-3.1347194256139394
16,6.681820473843345
17,-0.2576551741070716
18,9.964497388932954
2,1, 1, 1, 0,19,15.00,30.00,Tuesday
7,-1.9500000000000002
8,0.0
9,0.0
10,0.0
11,0.0
12,0.0
13,0.0
14,9.52327059480391
15,-3.0791508615843088
16,6.5839337016053609
17,-0.46739369125032229
18,9.917201900504967
2,1, 1, 1, 0,19,30.00,45.00,Tuesday
7,-2.075
8,0.0
9,0.0
10,0.0
11,0.0
12,0.0
13,0.0
14,9.482032315187306
15,-3.156080712834174
16,6.518079918586636
17,-0.6006425890750506
18,9.874804376501052
2,1, 1, 1, 0,19,45.00,60.00,Tuesday
7,-2.2
8,0.0
9,0.0
10,0.0
11,0.0
12,0.0
13,0.0
14,9.443112384701746
15,-3.143675767831966
16,6.423827141785864
17,-0.7996395223666468
18,9.83423057776568
2,1, 1, 1, 0,20, 0.00,15.00,Tuesday
7,-1.9250000000000003
8,0.0
9,0.0
10,0.0
11,0.0
12,0.0
13,0.0
14,9.42148230484036
15,-2.844961621419875
16,6.470482784496994
17,-0.6308752837697966
18,9.796831783237075
2,1, 1, 1, 0,20,15.00,30.00,Tuesday
7,-1.6500000000000002
8,0.0
9,0.0
10,0.0
11,0.0
12,0.0
13,0.0
14,9.39921290721237
15,-2.549032594745542
16,6.503083708228019
17,-0.4312642898721606
18,9.7632008909386
2,1, 1, 1, 0,20,30.00,45.00,Tuesday
7,-1.375
8,0.0
9,0.0
10,0.0
11,0.0
12,0.0
13,0.0
14,9.379141267437117
15,-2.254229624637382
16,6.541298105936107
17,-0.23732893775871845
18,9.732738478278954
2,1, 1, 1, 0,20,45.00,60.00,Tuesday
7,-1.1
8,0.0
9,0.0
10,0.0
11,0.0
12,0.0
13,0.0
14,9.360803129075887
15,-1.9605909774562305
16,6.582214502483112
17,-0.04074592630945517
18,9.704573704267336
2,1, 1, 1, 0,21, 0.00,15.00,Tuesday
7,-1.25
8,0.0
9,0.0
10,0.0
11,0.0
12,0.0
13,0.0
14,9.303836161700764
15,-2.2318233976495809
16,6.5538739374839
17,-0.05518701518042235
18,9.671933741484383
2,1, 1, 1, 0,21,15.00,30.00,Tuesday
7,-1.4
8,0.0
9,0.0
10,0.0
11,0.0
12,0.0
13,0.0
14,9.247615620539096
15,-2.443102762810286
16,6.498947125794643
17,-0.11903054794760237
18,9.630145690942303
2,1, 1, 1, 0,21,30.00,45.00,Tuesday
7,-1.5499999999999999
8,0.0
9,0.0
10,0.0
11,0.0
12,0.0
13,0.0
14,9.178966173887329
15,-2.774204575296352
16,6.469349193367634
17,-0.12155742313098017
18,9.57887255750791
2,1, 1, 1, 0,21,45.00,60.00,Tuesday
7,-1.7
8,0.0
9,0.0
10,0.0
11,0.0
12,0.0
13,0.0
14,9.105127802642518
15,-3.2108076501946165
16,6.438233180411942
17,-0.0823190002577121
18,9.52050291991067
2,1, 1, 1, 0,22, 0.00,15.00,Tuesday
7,-1.5499999999999999
8,0.0
9,0.0
10,0.0
11,0.0
12,0.0
13,0.0
14,9.094617084372008
15,-2.7412645944541609
16,6.372872761050189
17,-0.13642836597335873
18,9.467624096417273
2,1, 1, 1, 0,22,15.00,30.00,Tuesday
7,-1.4
8,0.0
9,0.0
10,0.0
11,0.0
12,0.0
13,0.0
14,9.074676954760216
15,-2.4233336469563997
16,6.347616532528718
17,-0.15033489470653195
18,9.427086261917541
2,1, 1, 1, 0,22,30.00,45.00,Tuesday
7,-1.25
8,0.0
9,0.0
10,0.0
11,0.0
12,0.0
13,0.0
14,9.054418707290442
15,-2.208738371589394
16,6.348020602655822
17,-0.0943442875366145
18,9.396652340922346
2,1, 1, 1, 0,22,45.00,60.00,Tuesday
7,-1.1
8,0.0
9,0.0
10,0.0
11,0.0
12,0.0
13,0.0
14,9.037814636341795
15,-1.9359945248459099
16,6.33554341859832
17,-0.08231325198630657
18,9.371093630688345
2,1, 1, 1, 0,23, 0.00,15.00,Tuesday
7,-1.25
8,0.0
9,0.0
10,0.0
11,0.0
12,0.0
13,0.0
14,8.979442962776363
15,-2.2392569533446675
16,6.223100448173909
17,-0.3463495374467698
18,9.339820436878343
2,1, 1, 1, 0,23,15.00,30.00,Tuesday
7,-1.4
8,0.0
9,0.0
10,0.0
11,0.0
12,0.0
13,0.0
14,8.923275420900595
15,-2.544010667727294
16,6.102343696444791
17,-0.6255114211446085
18,9.29806319296475
2,1, 1, 1, 0,23,30.00,45.00,Tuesday
7,-1.5499999999999999
8,0.0
9,0.0
10,0.0
11,0.0
12,0.0
13,0.0
14,8.862119177085797
15,-2.849418442420961
16,5.97967804462985
17,-0.9060056073269607
18,9.24738963337251
2,1, 1, 1, 0,23,45.00,60.00,Tuesday
7,-1.7
8,0.0
9,0.0
10,0.0
11,0.0
12,0.0
13,0.0
14,8.79701822098113
15,-3.1551699391076259
16,5.852979379247358
17,-1.1882307470671663
18,9.190995252534183
2,1, 1, 1, 0,24, 0.00,15.00,Tuesday
7,-1.7
8,0.0
9,0.0
10,0.0
11,0.0
12,0.0
13,0.0
14,8.747614691625739
15,-3.2095023811709919
16,5.794539125174367
17,-1.2541226959617689
18,9.134705636356746
2,1, 1, 1, 0,24,15.00,30.00,Tuesday
7,-1.7
8,0.0
9,0.0
10,0.0
11,0.0
12,0.0
13,0.0
14,8.69626980981589
15,-3.2643627935983456
16,5.739269437863868
17,-1.316982503015197
18,9.081399764897502
2,1, 1, 1, 0,24,30.00,45.00,Tuesday
7,-1.7
8,0.0
9,0.0
10,0.0
11,0.0
12,0.0
13,0.0
14,8.646225156652742
15,-3.319113701948405
16,5.683919169985927
17,-1.3798836356880884
18,9.030824947755593
2,1, 1, 1, 0,24,45.00,60.00,Tuesday
7,-1.7
8,0.0
9,0.0
10,0.0
11,0.0
12,0.0
13,0.0
14,8.59710074205501
15,-3.3738694279300729
16,5.629506520394898
17,-1.4426278812882175
18,8.981791114508809
End of Data
 Number of Records Written=        1152
