Program Version,EnergyPlus, Version 9.5.0-de239b2e5f, YMD=2023.02.17 15:25
1,5,Environment Title[],Latitude[deg],Longitude[deg],Time Zone[],Elevation[m]
2,8,Day of Simulation[],Month[],Day of Month[],DST Indicator[1=yes 0=no],Hour[],StartMinute[],EndMinute[],DayType
3,5,Cumulative Day of Simulation[],Month[],Day of Month[],DST Indicator[1=yes 0=no],DayType  ! When Daily Report Variables Requested
4,2,Cumulative Days of Simulation[],Month[]  ! When Monthly Report Variables Requested
5,1,Cumulative Days of Simulation[] ! When Run Period Report Variables Requested
6,1,Calendar Year of Simulation[] ! When Annual Report Variables Requested
7,1,Environment,Site Outdoor Air Drybulb Temperature [C] !TimeStep
8,1,ZONE ONE,Zone Windows Total Transmitted Solar Radiation Rate [W] !TimeStep
9,1,ZN001:WALL001,Surface Outside Face Sunlit Fraction [] !TimeStep
10,1,ZN001:WALL001,Surface Outside Face Incident Solar Radiation Rate per Area [W/m2] !TimeStep
11,1,ZN001:WALL001:WIN001,Surface Outside Face Sunlit Fraction [] !TimeStep
12,1,ZN001:WALL001:WIN001,Surface Outside Face Incident Solar Radiation Rate per Area [W/m2] !TimeStep
13,1,ZN001:WALL001:WIN001,Surface Window Transmitted Solar Radiation Rate [W] !TimeStep
14,1,ZN001:WALL001,Surface Inside Face Temperature [C] !TimeStep
15,1,ZN001:WALL001,Surface Outside Face Temperature [C] !TimeStep
16,1,ZN001:WALL001:WIN001,Surface Inside Face Temperature [C] !TimeStep
17,1,ZN001:WALL001:WIN001,Surface Outside Face Temperature [C] !TimeStep
18,1,ZONE ONE,Zone Mean Air Temperature [C] !TimeStep
End of Data Dictionary
1,RUN PERIOD 1,  41.98, -87.92,  -6.00, 201.00
2,1, 1, 1, 0, 1, 0.00,15.00,Tuesday
7,-4.324999999999999
8,0.0
9,0.0
10,0.0
11,0.0
12,0.0
13,0.0
14,8.563752920345609
15,-5.848073794820264
16,5.268202077001035
17,-3.5301165261907387
18,9.080391920716018
2,1, 1, 1, 0, 1,15.00,30.00,Tuesday
7,-6.949999999999999
8,0.0
9,0.0
10,0.0
11,0.0
12,0.0
13,0.0
14,8.374008635875296
15,-8.315070805203586
16,4.589364850139361
17,-5.555901207297438
18,8.969592198497934
2,1, 1, 1, 0, 1,30.00,45.00,Tuesday
7,-9.575
8,0.0
9,0.0
10,0.0
11,0.0
12,0.0
13,0.0
14,8.163156869942226
15,-10.790030243084141
16,3.9030487604676979
17,-7.587588020366752
18,8.826492140940946
2,1, 1, 1, 0, 1,45.00,60.00,Tuesday
7,-12.2
8,0.0
9,0.0
10,0.0
11,0.0
12,0.0
13,0.0
14,7.935895746125741
15,-13.271639275920038
16,3.201335550173212
17,-9.626893781923059
18,8.661500244198138
2,1, 1, 1, 0, 2, 0.00,15.00,Tuesday
7,-12.075
8,0.0
9,0.0
10,0.0
11,0.0
12,0.0
13,0.0
14,7.855587918794551
15,-13.072318216489747
16,3.1380850418274806
17,-9.471050743319268
18,8.513389300170492
2,1, 1, 1, 0, 2,15.00,30.00,Tuesday
7,-11.95
8,0.0
9,0.0
10,0.0
11,0.0
12,0.0
13,0.0
14,7.76260028820098
15,-12.895472221932416
16,3.1016486533181935
17,-9.33736733535494
18,8.398910321564282
2,1, 1, 1, 0, 2,30.00,45.00,Tuesday
7,-11.825
8,0.0
9,0.0
10,0.0
11,0.0
12,0.0
13,0.0
14,7.687591811234866
15,-12.717460998044502
16,3.0718848384658488
17,-9.202886908233097
18,8.31156611200109
2,1, 1, 1, 0, 2,45.00,60.00,Tuesday
7,-11.7
8,0.0
9,0.0
10,0.0
11,0.0
12,0.0
13,0.0
14,7.624068892320422
15,-12.539543529634015
16,3.059016929523125
17,-9.07530122923697
18,8.239629969966927
2,1, 1, 1, 0, 3, 0.00,15.00,Tuesday
7,-11.549999999999999
8,0.0
9,0.0
10,0.0
11,0.0
12,0.0
13,0.0
14,7.56231677754151
15,-12.412111340622314
16,3.0499669385525296
17,-8.913073441531992
18,8.173906886232944
2,1, 1, 1, 0, 3,15.00,30.00,Tuesday
7,-11.399999999999999
8,0.0
9,0.0
10,0.0
11,0.0
12,0.0
13,0.0
14,7.5036757311717559
15,-12.285992904046755
16,3.0460051690293428
17,-8.760349968927415
18,8.110139644051357
2,1, 1, 1, 0, 3,30.00,45.00,Tuesday
7,-11.25
8,0.0
9,0.0
10,0.0
11,0.0
12,0.0
13,0.0
14,7.445837678108244
15,-12.16132587972789
16,3.0439760136491715
17,-8.607439199009207
18,8.047253361642952
2,1, 1, 1, 0, 3,45.00,60.00,Tuesday
7,-11.1
8,0.0
9,0.0
10,0.0
11,0.0
12,0.0
13,0.0
14,7.388527911380227
15,-12.038163177465844
16,3.0425769216649316
17,-8.454532523711066
18,7.985205418426424
2,1, 1, 1, 0, 4, 0.00,15.00,Tuesday
7,-11.1
8,0.0
9,0.0
10,0.0
11,0.0
12,0.0
13,0.0
14,7.3272504300987679
15,-12.011793523139687
16,2.976250223142415
17,-8.508736422776451
18,7.922876783237329
2,1, 1, 1, 0, 4,15.00,30.00,Tuesday
7,-11.1
8,0.0
9,0.0
10,0.0
11,0.0
12,0.0
13,0.0
14,7.266354767816561
15,-11.986439099190953
16,2.914323185162857
17,-8.561431900005346
18,7.8598457338373619
2,1, 1, 1, 0, 4,30.00,45.00,Tuesday
7,-11.1
8,0.0
9,0.0
10,0.0
11,0.0
12,0.0
13,0.0
14,7.2051768147181118
15,-11.962523184884212
16,2.852857706948612
17,-8.613025091094017
18,7.7963162831555599
2,1, 1, 1, 0, 4,45.00,60.00,Tuesday
7,-11.1
8,0.0
9,0.0
10,0.0
11,0.0
12,0.0
13,0.0
14,7.143872592217288
15,-11.939915722694
16,2.791640769930268
17,-8.663364670634735
18,7.732615186915373
2,1, 1, 1, 0, 5, 0.00,15.00,Tuesday
7,-10.975
8,0.0
9,0.0
10,0.0
11,0.0
12,0.0
13,0.0
14,7.088268552458895
15,-11.818199508441172
16,2.7766542152984359
17,-8.584150036559266
18,7.670189994259206
2,1, 1, 1, 0, 5,15.00,30.00,Tuesday
7,-10.85
8,0.0
9,0.0
10,0.0
11,0.0
12,0.0
13,0.0
14,7.032947520122348
15,-11.696535053893389
16,2.7585974812350289
17,-8.496721020269206
18,7.609577059182592
2,1, 1, 1, 0, 5,30.00,45.00,Tuesday
7,-10.725
8,0.0
9,0.0
10,0.0
11,0.0
12,0.0
13,0.0
14,6.978780788132307
15,-11.57484485532809
16,2.740772220120732
17,-8.408298235913947
18,7.550484887834071
2,1, 1, 1, 0, 5,45.00,60.00,Tuesday
7,-10.6
8,0.0
9,0.0
10,0.0
11,0.0
12,0.0
13,0.0
14,6.925559463251485
15,-11.453163431686447
16,2.723803779347975
17,-8.319566506150523
18,7.492470471639745
2,1, 1, 1, 0, 6, 0.00,15.00,Tuesday
7,-10.6
8,0.0
9,0.0
10,0.0
11,0.0
12,0.0
13,0.0
14,6.865537929236464
15,-11.454314863361214
16,2.67396154676112
17,-8.32452587059879
18,7.433819597353506
2,1, 1, 1, 0, 6,15.00,30.00,Tuesday
7,-10.6
8,0.0
9,0.0
10,0.0
11,0.0
12,0.0
13,0.0
14,6.806170703451917
15,-11.455429264395495
16,2.6256901004571775
17,-8.335651997527066
18,7.373817938293363
2,1, 1, 1, 0, 6,30.00,45.00,Tuesday
7,-10.6
8,0.0
9,0.0
10,0.0
11,0.0
12,0.0
13,0.0
14,6.746266613041924
15,-11.456585798732537
16,2.577666928323822
17,-8.347375246179809
18,7.3127947314646779
2,1, 1, 1, 0, 6,45.00,60.00,Tuesday
7,-10.6
8,0.0
9,0.0
10,0.0
11,0.0
12,0.0
13,0.0
14,6.686078946852078
15,-11.457738952981897
16,2.529314379045104
17,-8.359264772135248
18,7.251301966289442
2,1, 1, 1, 0, 7, 0.00,15.00,Tuesday
7,-10.6
8,0.0
9,0.0
10,0.0
11,0.0
12,0.0
13,0.0
14,6.6277213884140349
15,-11.435888793869858
16,2.4693534455419696
17,-8.403013347788545
18,7.189933489972974
2,1, 1, 1, 0, 7,15.00,30.00,Tuesday
7,-10.6
8,0.0
9,0.0
10,0.0
11,0.0
12,0.0
13,0.0
14,6.569277152985394
15,-11.415173970465576
16,2.4118514778789406
17,-8.447264684963898
18,7.129008668124964
2,1, 1, 1, 0, 7,30.00,45.00,Tuesday
7,-10.6
8,0.0
9,0.0
10,0.0
11,0.0
12,0.0
13,0.0
14,6.511125402377739
15,-11.395516777478134
16,2.35498750563238
17,-8.49052360170947
18,7.0685281247496249
2,1, 1, 1, 0, 7,45.00,60.00,Tuesday
7,-10.6
8,0.0
9,0.0
10,0.0
11,0.0
12,0.0
13,0.0
14,6.453278231512102
15,-11.376853779981039
16,2.298744418168326
17,-8.532569889399952
18,7.008405179348144
2,1, 1, 1, 0, 8, 0.00,15.00,Tuesday
7,-10.45
8,0.0
9,0.0
10,0.0
11,0.0
12,0.0
13,0.0
14,6.395179633998209
15,-11.326780640884709
16,2.27885823618044
17,-8.47447198043335
18,6.948526676757139
2,1, 1, 1, 0, 8,15.00,30.00,Tuesday
7,-10.3
8,215.5879980222353
9,1.0
10,22.819555959623899
11,1.0
12,22.819555959623899
13,215.5879980222353
14,6.468517276634889
15,-9.652633957401739
16,2.5433779241897129
17,-8.15901891872113
18,6.909684360112161
2,1, 1, 1, 0, 8,30.00,45.00,Tuesday
7,-10.15
8,1058.5392312119832
9,1.0
10,109.75755355442667
11,1.0
12,109.75755355442667
13,1058.5392312119832
14,6.9019820524954629
15,-3.275468963884815
16,3.675789254852134
17,-7.138504608856692
18,6.950141484979697
2,1, 1, 1, 0, 8,45.00,60.00,Tuesday
7,-10.0
8,1924.8399544048012
9,1.0
10,195.8764694434918
11,1.0
12,195.8764694434918
13,1924.8399544048012
14,7.457465284399043
15,3.2012039133107774
16,4.910223636564751
17,-6.105613264231465
18,7.077445097468377
2,1, 1, 1, 0, 9, 0.00,15.00,Tuesday
7,-9.725
8,2788.1568045040946
9,1.0
10,278.97248314719988
11,1.0
12,278.97248314719988
13,2788.1568045040946
14,7.930677094568962
15,8.376193585298024
16,6.14268312776619
17,-5.20344448020569
18,7.265937089156456
2,1, 1, 1, 0, 9,15.00,30.00,Tuesday
7,-9.45
8,3698.191694964431
9,1.0
10,364.91995730569456
11,1.0
12,364.91995730569456
13,3698.191694964431
14,8.417519214378507
15,13.452018029901432
16,7.508744487013985
17,-4.273941682882594
18,7.505795956533489
2,1, 1, 1, 0, 9,30.00,45.00,Tuesday
7,-9.175
8,4300.2673206835229
9,1.0
10,420.35879993239237
11,1.0
12,420.35879993239237
13,4300.2673206835229
14,8.775802992500632
15,16.208405752725484
16,8.431081084175787
17,-3.694213148403094
18,7.772387004505534
2,1, 1, 1, 0, 9,45.00,60.00,Tuesday
7,-8.9
8,4925.271017558337
9,1.0
10,478.00138373643099
11,1.0
12,478.00138373643099
13,4925.271017558337
14,9.191431742743723
15,19.20255996631009
16,9.333192192385127
17,-3.097730670809028
18,8.053950183814689
2,1, 1, 1, 0,10, 0.00,15.00,Tuesday
7,-8.350000000000002
8,5563.47927965646
9,1.0
10,536.9185644770597
11,1.0
12,536.9185644770597
13,5563.47927965646
14,9.557960923079238
15,20.316355025232867
16,10.261474631643069
17,-2.4761415962985326
18,8.35116330654293
2,1, 1, 1, 0,10,15.00,30.00,Tuesday
7,-7.800000000000001
8,6223.735720388039
9,1.0
10,598.0969199229219
11,1.0
12,598.0969199229219
13,6223.735720388039
14,9.956976326806574
15,21.566530007980516
16,11.205140416114205
17,-1.8498306756837338
18,8.49213513658935
2,1, 1, 1, 0,10,30.00,45.00,Tuesday
7,-7.25
8,6656.871608685562
9,1.0
10,637.6133352894237
11,1.0
12,637.6133352894237
13,6656.871608685562
14,10.231174937929902
15,21.622356011484294
16,11.88326149389718
17,-1.406397535690303
18,8.764448473261038
2,1, 1, 1, 0,10,45.00,60.00,Tuesday
7,-6.7
8,7083.627635407371
9,1.0
10,676.6412284283772
11,1.0
12,676.6412284283772
13,7083.627635407371
14,10.497445952300838
15,21.77923966249668
16,12.504543004724951
17,-0.9678296933222441
18,8.966587100784846
2,1, 1, 1, 0,11, 0.00,15.00,Tuesday
7,-6.275
8,7502.619881932496
9,1.0
10,715.0112779846514
11,1.0
12,715.0112779846514
13,7502.619881932496
14,10.917724078309549
15,23.878969308668319
16,13.206926299893553
17,-0.2990407577608494
18,9.432238860745546
2,1, 1, 1, 0,11,15.00,30.00,Tuesday
7,-5.85
8,7911.749570952164
9,1.0
10,752.5077794605232
11,1.0
12,752.5077794605232
13,7911.749570952164
14,11.391140847475564
15,25.816274667538456
16,13.957916153471729
17,0.3625851986694215
18,9.8671933436668
2,1, 1, 1, 0,11,30.00,45.00,Tuesday
7,-5.425
8,7790.156876744835
9,1.0
10,742.5988714321785
11,1.0
12,742.5988714321785
13,7790.156876744835
14,11.68255845463862
15,25.668297928787735
16,14.223047432546025
17,0.6781692348467914
18,10.273049333675836
2,1, 1, 1, 0,11,45.00,60.00,Tuesday
7,-5.0
8,7616.415097398768
9,1.0
10,727.8169025450712
11,1.0
12,727.8169025450712
13,7616.415097398768
14,11.960838229350399
15,25.440240617093648
16,14.392863887510999
17,0.96259562713891
18,10.633057220485649
2,1, 1, 1, 0,12, 0.00,15.00,Tuesday
7,-4.575
8,7317.63187899619
9,1.0
10,700.3759009170325
11,1.0
12,700.3759009170325
13,7317.63187899619
14,12.16141746054292
15,24.698423946221099
16,14.422862145792465
17,1.1964773033796519
18,10.943061728880999
2,1, 1, 1, 0,12,15.00,30.00,Tuesday
7,-4.15
8,7096.045470548525
9,1.0
10,681.6705029034473
11,1.0
12,681.6705029034473
13,7096.045470548525
14,12.38209047870799
15,24.368819199812184
16,14.517636766342662
17,1.492111707832123
18,11.21570413890193
2,1, 1, 1, 0,12,30.00,45.00,Tuesday
7,-3.7249999999999998
8,6229.736928425406
9,1.0
10,602.01865277251
11,1.0
12,602.01865277251
13,6229.736928425406
14,12.295975474703287
15,21.34013355576254
16,13.947065865680088
17,1.3596470901646854
18,11.426126170122532
2,1, 1, 1, 0,12,45.00,60.00,Tuesday
7,-3.3
8,5087.904404183855
9,1.0
10,493.55004396206007
11,1.0
12,493.55004396206007
13,5087.904404183855
14,12.101855680005345
15,17.163146427298764
16,12.941359193128506
17,0.9912808004996236
18,11.541788858882926
2,1, 1, 1, 0,13, 0.00,15.00,Tuesday
7,-3.0249999999999996
8,4201.063393949559
9,1.0
10,412.335026418112
11,1.0
12,412.335026418112
13,4201.063393949559
14,11.96854753408757
15,14.320073014474792
16,12.129846519454418
17,0.7556502059360355
18,11.581438925742708
2,1, 1, 1, 0,13,15.00,30.00,Tuesday
7,-2.75
8,3076.892122430221
9,1.0
10,305.94037763660148
11,1.0
12,305.94037763660148
13,3076.892122430221
14,11.633886643527376
15,10.147832522790189
16,10.945234410799799
17,0.30404029146558289
18,11.556773392260812
2,1, 1, 1, 0,13,30.00,45.00,Tuesday
7,-2.475
8,2809.0935899127655
9,1.0
10,281.0763483922329
11,1.0
12,281.0763483922329
13,2809.0935899127655
14,11.609914235981675
15,9.63695103076207
16,10.687846122113399
17,0.44449783295868885
18,11.510225037412893
2,1, 1, 1, 0,13,45.00,60.00,Tuesday
7,-2.2
8,2546.8736709552365
9,1.0
10,256.7721209415886
11,1.0
12,256.7721209415886
13,2546.8736709552365
14,11.56994715475258
15,9.030572352413869
16,10.51934989401127
17,0.6117151846991646
18,11.47033019424418
2,1, 1, 1, 0,14, 0.00,15.00,Tuesday
7,-1.9250000000000003
8,2080.536760270814
9,1.0
10,210.73276284570657
11,1.0
12,210.73276284570657
13,2080.536760270814
14,11.408271679436865
15,7.484553576821834
16,10.076997749037219
17,0.5851389403351845
18,11.431524169663002
2,1, 1, 1, 0,14,15.00,30.00,Tuesday
7,-1.6500000000000002
8,1848.1882299855229
9,1.0
10,189.38488290342594
11,1.0
12,189.38488290342594
13,1848.1882299855229
14,11.364530599310659
15,7.080706173502358
16,9.884917055958681
17,0.7355095602400184
18,11.394820899290439
2,1, 1, 1, 0,14,30.00,45.00,Tuesday
7,-1.375
8,1762.648528253172
9,1.0
10,179.3940297802914
11,1.0
12,179.3940297802914
13,1762.648528253172
14,11.348877767419065
15,7.206434255754334
16,9.859009462058566
17,0.9813238478309359
18,11.362602501193244
2,1, 1, 1, 0,14,45.00,60.00,Tuesday
7,-1.1
8,1676.1315823352277
9,1.0
10,169.43349014176136
11,1.0
12,169.43349014176136
13,1676.1315823352277
14,11.329071988298976
15,7.307111585404091
16,9.826040823220183
17,1.2253424057387293
18,11.33442544140239
2,1, 1, 1, 0,15, 0.00,15.00,Tuesday
7,-1.1
8,1764.2336451764168
9,1.0
10,178.15692317953907
11,1.0
12,178.15692317953907
13,1764.2336451764168
14,11.398866913183179
15,8.129046243182364
16,9.937487361594549
17,1.3614559576886336
18,11.314909298431465
2,1, 1, 1, 0,15,15.00,30.00,Tuesday
7,-1.1
8,1657.44905719483
9,1.0
10,166.40516310952945
11,1.0
12,166.40516310952945
13,1657.44905719483
14,11.336860668316639
15,7.765262954801436
16,9.82642067934637
17,1.3290730078630305
18,11.298214334508053
2,1, 1, 1, 0,15,30.00,45.00,Tuesday
7,-1.1
8,1397.5312645024297
9,1.0
10,140.8967369711617
11,1.0
12,140.8967369711617
13,1397.5312645024297
14,11.20330125910988
15,6.559431099622995
16,9.505687108277016
17,1.1520792716654
18,11.271078217544942
2,1, 1, 1, 0,15,45.00,60.00,Tuesday
7,-1.1
8,1150.0543343484979
9,1.0
10,116.57355796743004
11,1.0
12,116.57355796743004
13,1150.0543343484979
14,11.071385846658855
15,5.355293778230904
16,9.181442866653527
17,0.9682485730245389
18,11.22602584899218
2,1, 1, 1, 0,16, 0.00,15.00,Tuesday
7,-1.1
8,912.7487358563033
9,1.0
10,93.14939272689483
11,1.0
12,93.14939272689483
13,912.7487358563033
14,10.952832140461366
15,4.308756687031554
16,8.894907099146508
17,0.8732914367517424
18,11.16207108711793
2,1, 1, 1, 0,16,15.00,30.00,Tuesday
7,-1.1
8,566.636069103818
9,1.0
10,57.94047897402063
11,1.0
12,57.94047897402063
13,566.636069103818
14,10.736032608808772
15,2.189653280131807
16,8.449672088821103
17,0.6486049632043205
18,11.072149635070849
2,1, 1, 1, 0,16,30.00,45.00,Tuesday
7,-1.1
8,439.3280485110057
9,1.0
10,45.38251793443488
11,1.0
12,45.38251793443488
13,439.3280485110057
14,10.649247678184116
15,1.5854888027431116
16,8.253255695896428
17,0.6448419260127594
18,10.97064490497231
2,1, 1, 1, 0,16,45.00,60.00,Tuesday
7,-1.1
8,306.6800834820858
9,1.0
10,32.02625108222755
11,1.0
12,32.02625108222755
13,306.6800834820858
14,10.520984671514924
15,0.7293059270071157
16,8.075038128760582
17,0.6419620312109373
18,10.870552811425842
2,1, 1, 1, 0,17, 0.00,15.00,Tuesday
7,-1.1
8,168.21359625367695
9,1.0
10,17.762198626050539
11,1.0
12,17.762198626050539
13,168.21359625367695
14,10.368416967901322
15,-0.5122496891649235
16,7.84108732271352
17,0.5333722129273042
18,10.770108154053512
2,1, 1, 1, 0,17,15.00,30.00,Tuesday
7,-1.1
8,0.0
9,0.0
10,0.0
11,0.0
12,0.0
13,0.0
14,10.16432873446752
15,-2.344958407582427
16,7.521380861570833
17,0.28358263159827859
18,10.655645398159607
2,1, 1, 1, 0,17,30.00,45.00,Tuesday
7,-1.1
8,0.0
9,0.0
10,0.0
11,0.0
12,0.0
13,0.0
14,10.099258969550297
15,-2.4761306829019777
16,7.445822649553861
17,0.33648980612917969
18,10.543691434881565
2,1, 1, 1, 0,17,45.00,60.00,Tuesday
7,-1.1
8,0.0
9,0.0
10,0.0
11,0.0
12,0.0
13,0.0
14,10.017254111154849
15,-2.659109111213089
16,7.408813273306407
17,0.4028347178362992
18,10.449191257370357
2,1, 1, 1, 0,18, 0.00,15.00,Tuesday
7,-1.25
8,0.0
9,0.0
10,0.0
11,0.0
12,0.0
13,0.0
14,9.94672783547015
15,-2.808016898266852
16,7.306488109178872
17,0.2650619685340416
18,10.372146618133643
2,1, 1, 1, 0,18,15.00,30.00,Tuesday
7,-1.4
8,0.0
9,0.0
10,0.0
11,0.0
12,0.0
13,0.0
14,9.88190998251912
15,-2.9605435121011247
16,7.219599998357808
17,0.13400192392714417
18,10.306549677783155
2,1, 1, 1, 0,18,30.00,45.00,Tuesday
7,-1.5499999999999999
8,0.0
9,0.0
10,0.0
11,0.0
12,0.0
13,0.0
14,9.821239910296189
15,-3.112736580003258
16,7.137407801725658
17,0.003841490197373787
18,10.246751847914018
2,1, 1, 1, 0,18,45.00,60.00,Tuesday
7,-1.7
8,0.0
9,0.0
10,0.0
11,0.0
12,0.0
13,0.0
14,9.762388467657566
15,-3.2650987763727246
16,7.057960173476431
17,-0.12561422621183739
18,10.18945733180521
2,1, 1, 1, 0,19, 0.00,15.00,Tuesday
7,-1.825
8,0.0
9,0.0
10,0.0
11,0.0
12,0.0
13,0.0
14,9.725631937236973
15,-3.130276886697011
16,6.946918852354088
17,-0.34648413148175907
18,10.136257420276449
2,1, 1, 1, 0,19,15.00,30.00,Tuesday
7,-1.9500000000000002
8,0.0
9,0.0
10,0.0
11,0.0
12,0.0
13,0.0
14,9.68932967072737
15,-3.0752165687543075
16,6.8527064173047169
17,-0.55312080812962
18,10.08910122480567
2,1, 1, 1, 0,19,30.00,45.00,Tuesday
7,-2.075
8,0.0
9,0.0
10,0.0
11,0.0
12,0.0
13,0.0
14,9.64707074811425
15,-3.1523193324203238
16,6.7884729937500769
17,-0.6858169407427113
18,10.046802781804076
2,1, 1, 1, 0,19,45.00,60.00,Tuesday
7,-2.2
8,0.0
9,0.0
10,0.0
11,0.0
12,0.0
13,0.0
14,9.608233106334846
15,-3.14031041372328
16,6.697872643614119
17,-0.8816002015022377
18,10.006257615205927
2,1, 1, 1, 0,20, 0.00,15.00,Tuesday
7,-1.9250000000000003
8,0.0
9,0.0
10,0.0
11,0.0
12,0.0
13,0.0
14,9.586365913645289
15,-2.8417055081389166
16,6.736618131648015
17,-0.7000427580649102
18,9.968715720856288
2,1, 1, 1, 0,20,15.00,30.00,Tuesday
7,-1.6500000000000002
8,0.0
9,0.0
10,0.0
11,0.0
12,0.0
13,0.0
14,9.563942592111037
15,-2.545875328363301
16,6.7707218726246769
17,-0.5056697045299075
18,9.934899940761666
2,1, 1, 1, 0,20,30.00,45.00,Tuesday
7,-1.375
8,0.0
9,0.0
10,0.0
11,0.0
12,0.0
13,0.0
14,9.543641079426836
15,-2.251162519463296
16,6.806356929969695
17,-0.30847431650801129
18,9.904240250691239
2,1, 1, 1, 0,20,45.00,60.00,Tuesday
7,-1.1
8,0.0
9,0.0
10,0.0
11,0.0
12,0.0
13,0.0
14,9.525064875755547
15,-1.9576106497134614
16,6.844382036554066
17,-0.10855623974873652
18,9.875854233155624
2,1, 1, 1, 0,21, 0.00,15.00,Tuesday
7,-1.25
8,0.0
9,0.0
10,0.0
11,0.0
12,0.0
13,0.0
14,9.467995080072658
15,-2.228368257666085
16,6.8140166997858959
17,-0.12817511634227686
18,9.84296765745133
2,1, 1, 1, 0,21,15.00,30.00,Tuesday
7,-1.4
8,0.0
9,0.0
10,0.0
11,0.0
12,0.0
13,0.0
14,9.41167937487004
15,-2.4393907801634158
16,6.758589998189791
17,-0.19498456299191958
18,9.800941307132489
2,1, 1, 1, 0,21,30.00,45.00,Tuesday
7,-1.5499999999999999
8,0.0
9,0.0
10,0.0
11,0.0
12,0.0
13,0.0
14,9.342895599719935
15,-2.769853470932362
16,6.724327866447027
17,-0.1972654975851924
18,9.749348220337863
2,1, 1, 1, 0,21,45.00,60.00,Tuesday
7,-1.7
8,0.0
9,0.0
10,0.0
11,0.0
12,0.0
13,0.0
14,9.26892568785322
15,-3.2057140663120098
16,6.691553538144035
17,-0.16781024414865443
18,9.690686789072418
2,1, 1, 1, 0,22, 0.00,15.00,Tuesday
7,-1.5499999999999999
8,0.0
9,0.0
10,0.0
11,0.0
12,0.0
13,0.0
14,9.258111499248104
15,-2.7370321959596395
16,6.628565203480889
17,-0.21645907748131777
18,9.63762181667038
2,1, 1, 1, 0,22,15.00,30.00,Tuesday
7,-1.4
8,0.0
9,0.0
10,0.0
11,0.0
12,0.0
13,0.0
14,9.23792031298761
15,-2.4196702408431056
16,6.604995498525682
17,-0.22549791030263578
18,9.596980491896883
2,1, 1, 1, 0,22,30.00,45.00,Tuesday
7,-1.25
8,0.0
9,0.0
10,0.0
11,0.0
12,0.0
13,0.0
14,9.217443568869184
15,-2.205325666585128
16,6.604365378104376
17,-0.16526547192472663
18,9.566450394831124
2,1, 1, 1, 0,22,45.00,60.00,Tuesday
7,-1.1
8,0.0
9,0.0
10,0.0
11,0.0
12,0.0
13,0.0
14,9.200663458998238
15,-1.9330401791631787
16,6.593144592329679
17,-0.14862228825779767
18,9.540787299509216
2,1, 1, 1, 0,23, 0.00,15.00,Tuesday
7,-1.25
8,0.0
9,0.0
10,0.0
11,0.0
12,0.0
13,0.0
14,9.142287546562749
15,-2.2362847243713279
16,6.483751628365326
17,-0.41415928582074459
18,9.509433304877954
2,1, 1, 1, 0,23,15.00,30.00,Tuesday
7,-1.4
8,0.0
9,0.0
10,0.0
11,0.0
12,0.0
13,0.0
14,9.086114494117974
15,-2.541035067404535
16,6.365972929170198
17,-0.6960123356005852
18,9.467637033761145
2,1, 1, 1, 0,23,30.00,45.00,Tuesday
7,-1.5499999999999999
8,0.0
9,0.0
10,0.0
11,0.0
12,0.0
13,0.0
14,9.024961871549078
15,-2.8464388402605427
16,6.246287232159602
17,-0.9792353834673122
18,9.416966559000647
2,1, 1, 1, 0,23,45.00,60.00,Tuesday
7,-1.7
8,0.0
9,0.0
10,0.0
11,0.0
12,0.0
13,0.0
14,8.959878291235694
15,-3.1521864317677465
16,6.122533335732442
17,-1.2641909699954113
18,9.360607816811969
2,1, 1, 1, 0,24, 0.00,15.00,Tuesday
7,-1.7
8,0.0
9,0.0
10,0.0
11,0.0
12,0.0
13,0.0
14,8.91041385048038
15,-3.2065239807956478
16,6.063907416552013
17,-1.330358961227148
18,9.304333948738428
2,1, 1, 1, 0,24,15.00,30.00,Tuesday
7,-1.7
8,0.0
9,0.0
10,0.0
11,0.0
12,0.0
13,0.0
14,8.859010526939328
15,-3.261385218241482
16,6.008721267507553
17,-1.3935010905377113
18,9.25100565127953
2,1, 1, 1, 0,24,30.00,45.00,Tuesday
7,-1.7
8,0.0
9,0.0
10,0.0
11,0.0
12,0.0
13,0.0
14,8.808895085048345
15,-3.3161376103681907
16,5.953447806129816
17,-1.4567093850366746
18,9.200376952558676
2,1, 1, 1, 0,24,45.00,60.00,Tuesday
7,-1.7
8,0.0
9,0.0
10,0.0
11,0.0
12,0.0
13,0.0
14,8.75969083536327
15,-3.3708948855465539
16,5.8991108654040549
17,-1.519794309006329
18,9.151270756995429
End of Data
 Number of Records Written=        1152
