Program Version,EnergyPlus, Version 9.5.0-de239b2e5f, YMD=2023.02.17 15:26
1,5,Environment Title[],Latitude[deg],Longitude[deg],Time Zone[],Elevation[m]
2,8,Day of Simulation[],Month[],Day of Month[],DST Indicator[1=yes 0=no],Hour[],StartMinute[],EndMinute[],DayType
3,5,Cumulative Day of Simulation[],Month[],Day of Month[],DST Indicator[1=yes 0=no],DayType  ! When Daily Report Variables Requested
4,2,Cumulative Days of Simulation[],Month[]  ! When Monthly Report Variables Requested
5,1,Cumulative Days of Simulation[] ! When Run Period Report Variables Requested
6,1,Calendar Year of Simulation[] ! When Annual Report Variables Requested
7,1,Environment,Site Outdoor Air Drybulb Temperature [C] !TimeStep
8,1,ZONE ONE,Zone Windows Total Transmitted Solar Radiation Rate [W] !TimeStep
9,1,ZN001:WALL001,Surface Outside Face Sunlit Fraction [] !TimeStep
10,1,ZN001:WALL001,Surface Outside Face Incident Solar Radiation Rate per Area [W/m2] !TimeStep
11,1,ZN001:WALL001:WIN001,Surface Outside Face Sunlit Fraction [] !TimeStep
12,1,ZN001:WALL001:WIN001,Surface Outside Face Incident Solar Radiation Rate per Area [W/m2] !TimeStep
13,1,ZN001:WALL001:WIN001,Surface Window Transmitted Solar Radiation Rate [W] !TimeStep
14,1,ZN001:WALL001,Surface Inside Face Temperature [C] !TimeStep
15,1,ZN001:WALL001,Surface Outside Face Temperature [C] !TimeStep
16,1,ZN001:WALL001:WIN001,Surface Inside Face Temperature [C] !TimeStep
17,1,ZN001:WALL001:WIN001,Surface Outside Face Temperature [C] !TimeStep
18,1,ZONE ONE,Zone Mean Air Temperature [C] !TimeStep
End of Data Dictionary
1,RUN PERIOD 1,  41.98, -87.92,  -6.00, 201.00
2,1, 1, 1, 0, 1, 0.00,15.00,Tuesday
7,-4.324999999999999
8,0.0
9,0.0
10,0.0
11,0.0
12,0.0
13,0.0
14,4.216070210890048
15,-5.927169397126538
16,1.0093068679656199
17,-3.7807174875838429
18,4.6161758812682669
2,1, 1, 1, 0, 1,15.00,30.00,Tuesday
7,-6.949999999999999
8,0.0
9,0.0
10,0.0
11,0.0
12,0.0
13,0.0
14,4.02997438529927
15,-8.394935776615914
16,0.1506170105236606
17,-5.678995080657444
18,4.512130251029749
2,1, 1, 1, 0, 1,30.00,45.00,Tuesday
7,-9.575
8,0.0
9,0.0
10,0.0
11,0.0
12,0.0
13,0.0
14,3.8202169984776677
15,-10.871001184830837
16,-0.7129998422972221
17,-7.58323706790452
18,4.372069823099265
2,1, 1, 1, 0, 1,45.00,60.00,Tuesday
7,-12.2
8,0.0
9,0.0
10,0.0
11,0.0
12,0.0
13,0.0
14,3.5919095297675227
15,-13.353625167967115
16,-1.5911581382893019
17,-9.496329034918177
18,4.206869243884171
2,1, 1, 1, 0, 2, 0.00,15.00,Tuesday
7,-12.075
8,0.0
9,0.0
10,0.0
11,0.0
12,0.0
13,0.0
14,3.520605696736505
15,-13.155017778909336
16,-1.6196223428814847
17,-9.365397306193131
18,4.059415144135717
2,1, 1, 1, 0, 2,15.00,30.00,Tuesday
7,-11.95
8,0.0
9,0.0
10,0.0
11,0.0
12,0.0
13,0.0
14,3.4347440528494905
15,-12.978026187786297
16,-1.6251437254807684
17,-9.255540137192725
18,3.9485286876444189
2,1, 1, 1, 0, 2,30.00,45.00,Tuesday
7,-11.825
8,0.0
9,0.0
10,0.0
11,0.0
12,0.0
13,0.0
14,3.3683368588914885
15,-12.79972772616602
16,-1.627791824272549
17,-9.135872522996806
18,3.867742130651406
2,1, 1, 1, 0, 2,45.00,60.00,Tuesday
7,-11.7
8,0.0
9,0.0
10,0.0
11,0.0
12,0.0
13,0.0
14,3.314461592475692
15,-12.621512788992185
16,-1.6183839540435657
17,-9.01048751566691
18,3.8044326826907426
2,1, 1, 1, 0, 3, 0.00,15.00,Tuesday
7,-11.549999999999999
8,0.0
9,0.0
10,0.0
11,0.0
12,0.0
13,0.0
14,3.262900580478345
15,-12.49608467541797
16,-1.5953040168943745
17,-8.870294522809559
18,3.7486962043648828
2,1, 1, 1, 0, 3,15.00,30.00,Tuesday
7,-11.399999999999999
8,0.0
9,0.0
10,0.0
11,0.0
12,0.0
13,0.0
14,3.2148993720353276
15,-12.372056275147582
16,-1.5705258632057167
17,-8.72922099070604
18,3.6956849911913998
2,1, 1, 1, 0, 3,30.00,45.00,Tuesday
7,-11.25
8,0.0
9,0.0
10,0.0
11,0.0
12,0.0
13,0.0
14,3.1679862909042577
15,-12.249587447514351
16,-1.5441068724321668
17,-8.58783715331748
18,3.6439436714032236
2,1, 1, 1, 0, 3,45.00,60.00,Tuesday
7,-11.1
8,0.0
9,0.0
10,0.0
11,0.0
12,0.0
13,0.0
14,3.121733487183505
15,-12.128734375765659
16,-1.5170643180903199
17,-8.446655036322455
18,3.5932403405431136
2,1, 1, 1, 0, 4, 0.00,15.00,Tuesday
7,-11.1
8,0.0
9,0.0
10,0.0
11,0.0
12,0.0
13,0.0
14,3.0713491635294249
15,-12.099556268552974
16,-1.5798840777306396
17,-8.489922227237685
18,3.5420725912047357
2,1, 1, 1, 0, 4,15.00,30.00,Tuesday
7,-11.1
8,0.0
9,0.0
10,0.0
11,0.0
12,0.0
13,0.0
14,3.021289192392924
15,-12.07152081218475
16,-1.6339798498729579
17,-8.539764378731207
18,3.489934765667391
2,1, 1, 1, 0, 4,30.00,45.00,Tuesday
7,-11.1
8,0.0
9,0.0
10,0.0
11,0.0
12,0.0
13,0.0
14,2.970823334515727
15,-12.045058885667178
16,-1.6867185122442266
17,-8.589686542555114
18,3.43710840751001
2,1, 1, 1, 0, 4,45.00,60.00,Tuesday
7,-11.1
8,0.0
9,0.0
10,0.0
11,0.0
12,0.0
13,0.0
14,2.9201342593527195
15,-12.02003236158313
16,-1.7390521839577105
17,-8.638678264481542
18,3.384004857499365
2,1, 1, 1, 0, 5, 0.00,15.00,Tuesday
7,-10.975
8,0.0
9,0.0
10,0.0
11,0.0
12,0.0
13,0.0
14,2.8754020453057738
15,-11.89804778960014
16,-1.7315176306356648
17,-8.56624612441533
18,3.3322685901709474
2,1, 1, 1, 0, 5,15.00,30.00,Tuesday
7,-10.85
8,0.0
9,0.0
10,0.0
11,0.0
12,0.0
13,0.0
14,2.8309824880752916
15,-11.776135052991777
16,-1.7273326613066047
17,-8.48635358877766
18,3.282522558473009
2,1, 1, 1, 0, 5,30.00,45.00,Tuesday
7,-10.725
8,0.0
9,0.0
10,0.0
11,0.0
12,0.0
13,0.0
14,2.7877714119425325
15,-11.654194978616167
16,-1.7231145389137055
17,-8.40527789376182
18,3.2344567722960759
2,1, 1, 1, 0, 5,45.00,60.00,Tuesday
7,-10.6
8,0.0
9,0.0
10,0.0
11,0.0
12,0.0
13,0.0
14,2.7455597389375905
15,-11.532263159848276
16,-1.7181114485449598
17,-8.323763051180663
18,3.187572982133485
2,1, 1, 1, 0, 6, 0.00,15.00,Tuesday
7,-10.6
8,0.0
9,0.0
10,0.0
11,0.0
12,0.0
13,0.0
14,2.696085413308282
15,-11.533246350496363
16,-1.755850395655557
17,-8.32979472277384
18,3.140004540650254
2,1, 1, 1, 0, 6,15.00,30.00,Tuesday
7,-10.6
8,0.0
9,0.0
10,0.0
11,0.0
12,0.0
13,0.0
14,2.647250467233203
15,-11.534162137987752
16,-1.7918008505595254
17,-8.341517939906567
18,3.090946387009673
2,1, 1, 1, 0, 6,30.00,45.00,Tuesday
7,-10.6
8,0.0
9,0.0
10,0.0
11,0.0
12,0.0
13,0.0
14,2.597829872625884
15,-11.535122386469233
16,-1.8274198589814433
17,-8.35394602848703
18,3.0407164690372596
2,1, 1, 1, 0, 6,45.00,60.00,Tuesday
7,-10.6
8,0.0
9,0.0
10,0.0
11,0.0
12,0.0
13,0.0
14,2.5480617896768535
15,-11.536080605694913
16,-1.863361374142869
17,-8.366619776255107
18,2.9898975622394268
2,1, 1, 1, 0, 7, 0.00,15.00,Tuesday
7,-10.6
8,0.0
9,0.0
10,0.0
11,0.0
12,0.0
13,0.0
14,2.5002411362752374
15,-11.51197636983861
16,-1.9142397204752797
17,-8.409069679525033
18,2.9390830941043197
2,1, 1, 1, 0, 7,15.00,30.00,Tuesday
7,-10.6
8,0.0
9,0.0
10,0.0
11,0.0
12,0.0
13,0.0
14,2.4522510353373407
15,-11.489127278012507
16,-1.9626394297911248
17,-8.451842724239157
18,2.8886120492251039
2,1, 1, 1, 0, 7,30.00,45.00,Tuesday
7,-10.6
8,0.0
9,0.0
10,0.0
11,0.0
12,0.0
13,0.0
14,2.4044859951510699
15,-11.467439353615293
16,-2.0103086741435165
17,-8.49376843452535
18,2.838516740113341
2,1, 1, 1, 0, 7,45.00,60.00,Tuesday
7,-10.6
8,0.0
9,0.0
10,0.0
11,0.0
12,0.0
13,0.0
14,2.3569790461032089
15,-11.446843008063843
16,-2.057312385584055
17,-8.534594127086394
18,2.7887352880384088
2,1, 1, 1, 0, 8, 0.00,15.00,Tuesday
7,-10.45
8,0.0
9,0.0
10,0.0
11,0.0
12,0.0
13,0.0
14,2.3090783735113509
15,-11.39835641011873
16,-2.0574186189130616
17,-8.481425665027473
18,2.7392895333854816
2,1, 1, 1, 0, 8,15.00,30.00,Tuesday
7,-10.3
8,148.01653406384325
9,1.0
10,22.819555959623899
11,1.0
12,22.819555959623899
13,148.01653406384325
14,2.382203952624651
15,-9.724858214765112
16,-1.716780735178304
17,-8.11690461049352
18,2.708156825008359
2,1, 1, 1, 0, 8,30.00,45.00,Tuesday
7,-10.15
8,726.7626658810535
9,1.0
10,109.75755355442667
11,1.0
12,109.75755355442667
13,726.7626658810535
14,2.7869113618143066
15,-3.3578924626499146
16,-0.3416067228519637
17,-6.874477796105907
18,2.7451705411546527
2,1, 1, 1, 0, 8,45.00,60.00,Tuesday
7,-10.0
8,1321.5398876203654
9,1.0
10,195.8764694434918
11,1.0
12,195.8764694434918
13,1321.5398876203654
14,3.3020758029026835
15,3.1294477487252045
16,1.1313790489331269
17,-5.603141352811917
18,2.8571252583662507
2,1, 1, 1, 0, 9, 0.00,15.00,Tuesday
7,-9.725
8,1914.2684677032626
9,1.0
10,278.97248314719988
11,1.0
12,278.97248314719988
13,1914.2684677032626
14,3.6998210309156778
15,8.305458169113062
16,2.603131462099782
17,-4.455454254018946
18,3.0227838862783087
2,1, 1, 1, 0, 9,15.00,30.00,Tuesday
7,-9.45
8,2539.072313923231
9,1.0
10,364.91995730569456
11,1.0
12,364.91995730569456
13,2539.072313923231
14,4.130981229527492
15,13.386211211893408
16,4.174856010450185
17,-3.280819417385601
18,3.2321291806346137
2,1, 1, 1, 0, 9,30.00,45.00,Tuesday
7,-9.175
8,2952.440164549716
9,1.0
10,420.35879993239237
11,1.0
12,420.35879993239237
13,2952.440164549716
14,4.438206518412755
15,16.14466841675699
16,5.174552396485183
17,-2.5549970826212986
18,3.4639367978992698
2,1, 1, 1, 0, 9,45.00,60.00,Tuesday
7,-8.9
8,3381.5497710085135
9,1.0
10,478.00138373643099
11,1.0
12,478.00138373643099
13,3381.5497710085135
14,4.795875817986565
15,19.139962772708324
16,6.175640902442183
17,-1.8143084261497507
18,3.7083115282744405
2,1, 1, 1, 0,10, 0.00,15.00,Tuesday
7,-8.350000000000002
8,3819.72525310092
9,1.0
10,536.9185644770597
11,1.0
12,536.9185644770597
13,3819.72525310092
14,5.098508487637257
15,20.25832752178543
16,7.172374277304584
17,-1.111742827143246
18,3.965470505494525
2,1, 1, 1, 0,10,15.00,30.00,Tuesday
7,-7.800000000000001
8,4273.038382064532
9,1.0
10,598.0969199229219
11,1.0
12,598.0969199229219
13,4273.038382064532
14,5.428716995416921
15,21.51182874748212
16,8.18308883526231
17,-0.4100477481635494
18,4.241383681267972
2,1, 1, 1, 0,10,30.00,45.00,Tuesday
7,-7.25
8,4570.41705598247
9,1.0
10,637.6133352894237
11,1.0
12,637.6133352894237
13,4570.41705598247
14,5.683107472303518
15,21.572018481608465
16,8.892632669518094
17,0.056219017106741379
18,4.530059423706194
2,1, 1, 1, 0,10,45.00,60.00,Tuesday
7,-6.7
8,4863.415499985352
9,1.0
10,676.6412284283772
11,1.0
12,676.6412284283772
13,4863.415499985352
14,5.962278358357918
15,21.732681266325707
16,9.58135635284873
17,0.5195333611889055
18,4.820270291881706
2,1, 1, 1, 0,11, 0.00,15.00,Tuesday
7,-6.275
8,5151.083555253686
9,1.0
10,715.0112779846514
11,1.0
12,715.0112779846514
13,5151.083555253686
14,6.320001211796226
15,23.83056873887958
16,10.374640538780227
17,1.261986309493068
18,5.113619101885189
2,1, 1, 1, 0,11,15.00,30.00,Tuesday
7,-5.85
8,5431.980261502767
9,1.0
10,752.5077794605232
11,1.0
12,752.5077794605232
13,5431.980261502767
14,6.6679344883363849
15,25.765994732554739
16,11.155555502185394
17,1.9881335039098645
18,5.413480678438175
2,1, 1, 1, 0,11,30.00,45.00,Tuesday
7,-5.425
8,5348.498206243613
9,1.0
10,742.5988714321785
11,1.0
12,742.5988714321785
13,5348.498206243613
14,6.877491203270241
15,25.618130867798255
16,11.324227601579537
17,2.256587961005607
18,5.700781603237334
2,1, 1, 1, 0,11,45.00,60.00,Tuesday
7,-5.0
8,5229.212085323862
9,1.0
10,727.8169025450712
11,1.0
12,727.8169025450712
13,5229.212085323862
14,7.082819091245797
15,25.389274307643569
16,11.409064331694936
17,2.4858148503210488
18,5.96139626169478
2,1, 1, 1, 0,12, 0.00,15.00,Tuesday
7,-4.575
8,5024.076099878796
9,1.0
10,700.3759009170325
11,1.0
12,700.3759009170325
13,5024.076099878796
14,7.2290577398853739
15,24.646957958271288
16,11.343591223342458
17,2.638553228615649
18,6.187396359995155
2,1, 1, 1, 0,12,15.00,30.00,Tuesday
7,-4.15
8,4871.94122931558
9,1.0
10,681.6705029034473
11,1.0
12,681.6705029034473
13,4871.94122931558
14,7.396345976524681
15,24.316759123764965
16,11.366729650445507
17,2.8663300642323294
18,6.386561559729166
2,1, 1, 1, 0,12,30.00,45.00,Tuesday
7,-3.7249999999999998
8,4277.158639322997
9,1.0
10,602.01865277251
11,1.0
12,602.01865277251
13,4277.158639322997
14,7.32109837120685
15,21.288626342142046
16,10.605215729024906
17,2.5356316183656419
18,6.536034463502784
2,1, 1, 1, 0,12,45.00,60.00,Tuesday
7,-3.3
8,3493.2091881935878
9,1.0
10,493.55004396206007
11,1.0
12,493.55004396206007
13,3493.2091881935878
14,7.131025539492528
15,17.11039495837168
16,9.385503578941723
17,1.9126747896881398
18,6.609889839000238
2,1, 1, 1, 0,13, 0.00,15.00,Tuesday
7,-3.0249999999999996
8,2884.3295946875239
9,1.0
10,412.335026418112
11,1.0
12,412.335026418112
13,2884.3295946875239
14,7.000109580679691
15,14.266242438215342
16,8.424293254505529
17,1.475528197366657
18,6.623010657463491
2,1, 1, 1, 0,13,15.00,30.00,Tuesday
7,-2.75
8,2112.505852962877
9,1.0
10,305.94037763660148
11,1.0
12,305.94037763660148
13,2112.505852962877
14,6.7028628636793219
15,10.093435208180175
16,7.0634601945212129
17,0.7683899684299718
18,6.584470357947884
2,1, 1, 1, 0,13,30.00,45.00,Tuesday
7,-2.475
8,1928.6430638732532
9,1.0
10,281.0763483922329
11,1.0
12,281.0763483922329
13,1928.6430638732532
14,6.68151393429452
15,9.581141581565257
16,6.790471557530054
17,0.8313651533832172
18,6.531544120217307
2,1, 1, 1, 0,13,45.00,60.00,Tuesday
7,-2.2
8,1748.610390799348
9,1.0
10,256.7721209415886
11,1.0
12,256.7721209415886
13,1748.610390799348
14,6.645956756426249
15,8.973821534710716
16,6.5767062816742058
17,0.9189886534734342
18,6.488138623533806
2,1, 1, 1, 0,14, 0.00,15.00,Tuesday
7,-1.9250000000000003
8,1428.4368474723443
9,1.0
10,210.73276284570657
11,1.0
12,210.73276284570657
13,1428.4368474723443
14,6.51241317492394
15,7.426667050088891
16,6.0209633453182509
17,0.762948717766676
18,6.450737474226025
2,1, 1, 1, 0,14,15.00,30.00,Tuesday
7,-1.6500000000000002
8,1268.9130128286689
9,1.0
10,189.38488290342594
11,1.0
12,189.38488290342594
13,1268.9130128286689
14,6.481613254630602
15,7.021029431451615
16,5.8120188592216099
17,0.8417802248766293
18,6.418444440259497
2,1, 1, 1, 0,14,30.00,45.00,Tuesday
7,-1.375
8,1210.1839078162066
9,1.0
10,179.3940297802914
11,1.0
12,179.3940297802914
13,1210.1839078162066
14,6.476131886909164
15,7.142780496173695
16,5.809358720958812
17,1.0555356906108955
18,6.3926782809258999
2,1, 1, 1, 0,14,45.00,60.00,Tuesday
7,-1.1
8,1150.7838549837705
9,1.0
10,169.43349014176136
11,1.0
12,169.43349014176136
13,1150.7838549837705
14,6.467555370305619
15,7.241452976991239
16,5.801101938933243
17,1.26550011447614
18,6.372921245434565
2,1, 1, 1, 0,15, 0.00,15.00,Tuesday
7,-1.1
8,1211.2722036175777
9,1.0
10,178.15692317953907
11,1.0
12,178.15692317953907
13,1211.2722036175777
14,6.5250120482453799
15,8.05755827940507
16,5.956676014198422
17,1.4258878013692425
18,6.362229513447698
2,1, 1, 1, 0,15,15.00,30.00,Tuesday
7,-1.1
8,1137.9569692377798
9,1.0
10,166.40516310952945
11,1.0
12,166.40516310952945
13,1137.9569692377798
14,6.478592765111341
15,7.695523096283559
16,5.818160584412567
17,1.3629802918683823
18,6.3544572671944
2,1, 1, 1, 0,15,30.00,45.00,Tuesday
7,-1.1
8,959.5048700077512
9,1.0
10,140.8967369711617
11,1.0
12,140.8967369711617
13,959.5048700077512
14,6.3667897607854428
15,6.489158745710417
16,5.4304736654625
17,1.1107841962964358
18,6.338819110541375
2,1, 1, 1, 0,15,45.00,60.00,Tuesday
7,-1.1
8,789.5943100591383
9,1.0
10,116.57355796743004
11,1.0
12,116.57355796743004
13,789.5943100591383
14,6.249266590350914
15,5.277965675487026
16,5.047443409864741
17,0.8528317121479176
18,6.307154162768433
2,1, 1, 1, 0,16, 0.00,15.00,Tuesday
7,-1.1
8,626.6670946064958
9,1.0
10,93.14939272689483
11,1.0
12,93.14939272689483
13,626.6670946064958
14,6.141825805567139
15,4.2256054282854509
16,4.716043016301342
17,0.6757253820113647
18,6.257587667325983
2,1, 1, 1, 0,16,15.00,30.00,Tuesday
7,-1.1
8,389.0360678411529
9,1.0
10,57.94047897402063
11,1.0
12,57.94047897402063
13,389.0360678411529
14,5.95163990085598
15,2.100116938053783
16,4.1903672175844239
17,0.33006388886099105
18,6.182520751274105
2,1, 1, 1, 0,16,30.00,45.00,Tuesday
7,-1.1
8,301.6300334628514
9,1.0
10,45.38251793443488
11,1.0
12,45.38251793443488
13,301.6300334628514
14,5.8798381062366789
15,1.488217630159218
16,3.988424889514704
17,0.26216698479458958
18,6.092515429058542
2,1, 1, 1, 0,16,45.00,60.00,Tuesday
7,-1.1
8,210.55774644166127
9,1.0
10,32.02625108222755
11,1.0
12,32.02625108222755
13,210.55774644166127
14,5.767691523988445
15,0.6222159343664582
16,3.7901482872064209
17,0.18663300603094513
18,6.001659041572413
2,1, 1, 1, 0,17, 0.00,15.00,Tuesday
7,-1.1
8,115.49062901598868
9,1.0
10,17.762198626050539
11,1.0
12,17.762198626050539
13,115.49062901598868
14,5.6295251663010819
15,-0.6323943061049316
16,3.525704910607317
17,0.005524123408690684
18,5.910698615354381
2,1, 1, 1, 0,17,15.00,30.00,Tuesday
7,-1.1
8,0.0
9,0.0
10,0.0
11,0.0
12,0.0
13,0.0
14,5.440939375681043
15,-2.4712596106819229
16,3.16732305751259
17,-0.3015447937098088
18,5.808321669232982
2,1, 1, 1, 0,17,30.00,45.00,Tuesday
7,-1.1
8,0.0
9,0.0
10,0.0
11,0.0
12,0.0
13,0.0
14,5.387340251337386
15,-2.608316312141514
16,3.1087281205351475
17,-0.2879506283975388
18,5.7088301917568009
2,1, 1, 1, 0,17,45.00,60.00,Tuesday
7,-1.1
8,0.0
9,0.0
10,0.0
11,0.0
12,0.0
13,0.0
14,5.317977148622453
15,-2.802010057414784
16,3.0833341938775904
17,-0.2550572904171986
18,5.625480027610097
2,1, 1, 1, 0,18, 0.00,15.00,Tuesday
7,-1.25
8,0.0
9,0.0
10,0.0
11,0.0
12,0.0
13,0.0
14,5.259830918635756
15,-2.949506835738644
16,2.9864151060470478
17,-0.37877525322397789
18,5.558681182588783
2,1, 1, 1, 0,18,15.00,30.00,Tuesday
7,-1.4
8,0.0
9,0.0
10,0.0
11,0.0
12,0.0
13,0.0
14,5.20666668845789
15,-3.101963554754205
16,2.9021091900815465
17,-0.5001987800786765
18,5.503303915643895
2,1, 1, 1, 0,18,30.00,45.00,Tuesday
7,-1.5499999999999999
8,0.0
9,0.0
10,0.0
11,0.0
12,0.0
13,0.0
14,5.157497054170762
15,-3.253919566966904
16,2.82224977454905
17,-0.6204428731307417
18,5.454202434185811
2,1, 1, 1, 0,18,45.00,60.00,Tuesday
7,-1.7
8,0.0
9,0.0
10,0.0
11,0.0
12,0.0
13,0.0
14,5.11022042825376
15,-3.406050505581145
16,2.7449931515193386
17,-0.7397592825559514
18,5.408140469159183
2,1, 1, 1, 0,19, 0.00,15.00,Tuesday
7,-1.825
8,0.0
9,0.0
10,0.0
11,0.0
12,0.0
13,0.0
14,5.088254797618499
15,-3.25477268471617
16,2.641718892555957
17,-0.9119199168573573
18,5.36672915980655
2,1, 1, 1, 0,19,15.00,30.00,Tuesday
7,-1.9500000000000002
8,0.0
9,0.0
10,0.0
11,0.0
12,0.0
13,0.0
14,5.065137977471083
15,-3.1853494831420665
16,2.5548769943476374
17,-1.0712784149964137
18,5.331689881137046
2,1, 1, 1, 0,19,30.00,45.00,Tuesday
7,-2.075
8,0.0
9,0.0
10,0.0
11,0.0
12,0.0
13,0.0
14,5.037256217794684
15,-3.2584842683448715
16,2.493903464186758
17,-1.1849160395021273
18,5.30188901497135
2,1, 1, 1, 0,19,45.00,60.00,Tuesday
7,-2.2
8,0.0
9,0.0
10,0.0
11,0.0
12,0.0
13,0.0
14,5.012030738108761
15,-3.233900659366223
16,2.410634677833741
17,-1.3382659575910339
18,5.274272512946582
2,1, 1, 1, 0,20, 0.00,15.00,Tuesday
7,-1.9250000000000003
8,0.0
9,0.0
10,0.0
11,0.0
12,0.0
13,0.0
14,5.004580362569145
15,-2.932177762206174
16,2.489116720062441
17,-1.17059256272114
18,5.250132210704963
2,1, 1, 1, 0,20,15.00,30.00,Tuesday
7,-1.6500000000000002
8,0.0
9,0.0
10,0.0
11,0.0
12,0.0
13,0.0
14,4.996945872343246
15,-2.6335138222734497
16,2.559922249958845
17,-0.984001624982227
18,5.230147245566317
2,1, 1, 1, 0,20,30.00,45.00,Tuesday
7,-1.375
8,0.0
9,0.0
10,0.0
11,0.0
12,0.0
13,0.0
14,4.991302300012913
15,-2.3361152245514189
16,2.6255135949338639
17,-0.7823038662622821
18,5.213583995412757
2,1, 1, 1, 0,20,45.00,60.00,Tuesday
7,-1.1
8,0.0
9,0.0
10,0.0
11,0.0
12,0.0
13,0.0
14,4.987575675252477
15,-2.040009485586909
16,2.704357318790187
17,-0.5964672942403695
18,5.199585425138695
2,1, 1, 1, 0,21, 0.00,15.00,Tuesday
7,-1.25
8,0.0
9,0.0
10,0.0
11,0.0
12,0.0
13,0.0
14,4.940459752730834
15,-2.323680342316675
16,2.6619700338953864
17,-0.6385694486543798
18,5.180963151055793
2,1, 1, 1, 0,21,15.00,30.00,Tuesday
7,-1.4
8,0.0
9,0.0
10,0.0
11,0.0
12,0.0
13,0.0
14,4.894778312605293
15,-2.5415699827244926
16,2.6054520710495128
17,-0.7175779063319396
18,5.152769986350969
2,1, 1, 1, 0,21,30.00,45.00,Tuesday
7,-1.5499999999999999
8,0.0
9,0.0
10,0.0
11,0.0
12,0.0
13,0.0
14,4.835629398650851
15,-2.889259475311407
16,2.5672416571065925
17,-0.7597052755888853
18,5.114308088813288
2,1, 1, 1, 0,21,45.00,60.00,Tuesday
7,-1.7
8,0.0
9,0.0
10,0.0
11,0.0
12,0.0
13,0.0
14,4.771361261948192
15,-3.3450139203760238
16,2.5345703474096128
17,-0.7756386413673226
18,5.068019144891094
2,1, 1, 1, 0,22, 0.00,15.00,Tuesday
7,-1.5499999999999999
8,0.0
9,0.0
10,0.0
11,0.0
12,0.0
13,0.0
14,4.777051250152867
15,-2.8529724377008125
16,2.5019295568051236
17,-0.7826264798112561
18,5.027027551205551
2,1, 1, 1, 0,22,15.00,30.00,Tuesday
7,-1.4
8,0.0
9,0.0
10,0.0
11,0.0
12,0.0
13,0.0
14,4.77292042121342
15,-2.5198911359647786
16,2.5105898325721229
17,-0.7541666048327897
18,4.998629804838787
2,1, 1, 1, 0,22,30.00,45.00,Tuesday
7,-1.25
8,0.0
9,0.0
10,0.0
11,0.0
12,0.0
13,0.0
14,4.76725744143125
15,-2.2984904428832304
16,2.5330346046467868
17,-0.6759778934411429
18,4.980903788098803
2,1, 1, 1, 0,22,45.00,60.00,Tuesday
7,-1.1
8,0.0
9,0.0
10,0.0
11,0.0
12,0.0
13,0.0
14,4.765400947997595
15,-2.013555786613742
16,2.549801416091725
17,-0.6165252148759919
18,4.968700345612193
2,1, 1, 1, 0,23, 0.00,15.00,Tuesday
7,-1.25
8,0.0
9,0.0
10,0.0
11,0.0
12,0.0
13,0.0
14,4.717014525015314
15,-2.3170900897574278
16,2.424439726903472
17,-0.8664692895089274
18,4.951143580544803
2,1, 1, 1, 0,23,15.00,30.00,Tuesday
7,-1.4
8,0.0
9,0.0
10,0.0
11,0.0
12,0.0
13,0.0
14,4.671514258089026
15,-2.621710576370611
16,2.2907619642825809
17,-1.1320959090433008
18,4.922868759689874
2,1, 1, 1, 0,23,30.00,45.00,Tuesday
7,-1.5499999999999999
8,0.0
9,0.0
10,0.0
11,0.0
12,0.0
13,0.0
14,4.621262234321925
15,-2.927005912109814
16,2.1555763431090328
17,-1.3991987744091148
18,4.885015336189293
2,1, 1, 1, 0,23,45.00,60.00,Tuesday
7,-1.7
8,0.0
9,0.0
10,0.0
11,0.0
12,0.0
13,0.0
14,4.566970841357275
15,-3.232644676095541
16,2.016644680969705
17,-1.6682964570629793
18,4.840680898341512
2,1, 1, 1, 0,24, 0.00,15.00,Tuesday
7,-1.7
8,0.0
9,0.0
10,0.0
11,0.0
12,0.0
13,0.0
14,4.529520823636431
15,-3.2866484752103135
16,1.965364963221532
17,-1.7338295676072449
18,4.795926940257772
2,1, 1, 1, 0,24,15.00,30.00,Tuesday
7,-1.7
8,0.0
9,0.0
10,0.0
11,0.0
12,0.0
13,0.0
14,4.489903838494627
15,-3.341312366564072
16,1.9172095317708227
17,-1.7944738284602409
18,4.75395667773312
2,1, 1, 1, 0,24,30.00,45.00,Tuesday
7,-1.7
8,0.0
9,0.0
10,0.0
11,0.0
12,0.0
13,0.0
14,4.45141048557067
15,-3.3958620646948756
16,1.8689611658381864
17,-1.8545631422350653
18,4.714756762103109
2,1, 1, 1, 0,24,45.00,60.00,Tuesday
7,-1.7
8,0.0
9,0.0
10,0.0
11,0.0
12,0.0
13,0.0
14,4.413782403775137
15,-3.4504130928932366
16,1.8215873686340274
17,-1.914120131770801
18,4.677224847381733
End of Data
 Number of Records Written=        1152
