Program Version,EnergyPlus, Version 9.5.0-de239b2e5f, YMD=2023.02.17 15:24
1,5,Environment Title[],Latitude[deg],Longitude[deg],Time Zone[],Elevation[m]
2,8,Day of Simulation[],Month[],Day of Month[],DST Indicator[1=yes 0=no],Hour[],StartMinute[],EndMinute[],DayType
3,5,Cumulative Day of Simulation[],Month[],Day of Month[],DST Indicator[1=yes 0=no],DayType  ! When Daily Report Variables Requested
4,2,Cumulative Days of Simulation[],Month[]  ! When Monthly Report Variables Requested
5,1,Cumulative Days of Simulation[] ! When Run Period Report Variables Requested
6,1,Calendar Year of Simulation[] ! When Annual Report Variables Requested
7,1,Environment,Site Outdoor Air Drybulb Temperature [C] !TimeStep
8,1,ZONE ONE,Zone Windows Total Transmitted Solar Radiation Rate [W] !TimeStep
9,1,ZN001:WALL001,Surface Outside Face Sunlit Fraction [] !TimeStep
10,1,ZN001:WALL001,Surface Outside Face Incident Solar Radiation Rate per Area [W/m2] !TimeStep
11,1,ZN001:WALL001:WIN001,Surface Outside Face Sunlit Fraction [] !TimeStep
12,1,ZN001:WALL001:WIN001,Surface Outside Face Incident Solar Radiation Rate per Area [W/m2] !TimeStep
13,1,ZN001:WALL001:WIN001,Surface Window Transmitted Solar Radiation Rate [W] !TimeStep
14,1,ZN001:WALL001,Surface Inside Face Temperature [C] !TimeStep
15,1,ZN001:WALL001,Surface Outside Face Temperature [C] !TimeStep
16,1,ZN001:WALL001:WIN001,Surface Inside Face Temperature [C] !TimeStep
17,1,ZN001:WALL001:WIN001,Surface Outside Face Temperature [C] !TimeStep
18,1,ZONE ONE,Zone Mean Air Temperature [C] !TimeStep
End of Data Dictionary
1,RUN PERIOD 1,  41.98, -87.92,  -6.00, 201.00
2,1, 1, 1, 0, 1, 0.00,15.00,Tuesday
7,-4.324999999999999
8,0.0
9,0.0
10,0.0
11,0.0
12,0.0
13,0.0
14,9.710794102142719
15,-5.827200323809176
16,7.3500432299917979
17,-4.209744260395496
18,10.271997802263393
2,1, 1, 1, 0, 1,15.00,30.00,Tuesday
7,-6.949999999999999
8,0.0
9,0.0
10,0.0
11,0.0
12,0.0
13,0.0
14,9.525342996187682
15,-8.293871003901174
16,6.835497359833823
17,-6.363221527739654
18,10.166239666193297
2,1, 1, 1, 0, 1,30.00,45.00,Tuesday
7,-9.575
8,0.0
9,0.0
10,0.0
11,0.0
12,0.0
13,0.0
14,9.320411078003892
15,-10.768408786067197
16,6.313650098718313
17,-8.52300593633447
18,10.030834627080849
2,1, 1, 1, 0, 1,45.00,60.00,Tuesday
7,-12.2
8,0.0
9,0.0
10,0.0
11,0.0
12,0.0
13,0.0
14,9.100301327020194
15,-13.249597348969792
16,5.776426626425405
17,-10.690134015641093
18,9.875245649515155
2,1, 1, 1, 0, 2, 0.00,15.00,Tuesday
7,-12.075
8,0.0
9,0.0
10,0.0
11,0.0
12,0.0
13,0.0
14,9.023380602315866
15,-13.049980482719385
16,5.686692479661019
17,-10.520136424061434
18,9.734551828079612
2,1, 1, 1, 0, 2,15.00,30.00,Tuesday
7,-11.95
8,0.0
9,0.0
10,0.0
11,0.0
12,0.0
13,0.0
14,8.933692792274443
15,-12.87310155936408
16,5.635960178938944
17,-10.368518907965609
18,9.62449945848123
2,1, 1, 1, 0, 2,30.00,45.00,Tuesday
7,-11.825
8,0.0
9,0.0
10,0.0
11,0.0
12,0.0
13,0.0
14,8.860534922791489
15,-12.695118130003714
16,5.590594114063151
17,-10.216662645868212
18,9.539356741458129
2,1, 1, 1, 0, 2,45.00,60.00,Tuesday
7,-11.7
8,0.0
9,0.0
10,0.0
11,0.0
12,0.0
13,0.0
14,8.79793375544826
15,-12.517228890536679
16,5.557697245542727
17,-10.0627833433133
18,9.46836565921837
2,1, 1, 1, 0, 3, 0.00,15.00,Tuesday
7,-11.549999999999999
8,0.0
9,0.0
10,0.0
11,0.0
12,0.0
13,0.0
14,8.736766131871456
15,-12.38919205180465
16,5.531761155628374
17,-9.910194473657612
18,9.403047877732757
2,1, 1, 1, 0, 3,15.00,30.00,Tuesday
7,-11.399999999999999
8,0.0
9,0.0
10,0.0
11,0.0
12,0.0
13,0.0
14,8.678434020667707
15,-12.262436258797547
16,5.507479248796017
17,-9.757383571371634
18,9.339423349022308
2,1, 1, 1, 0, 3,30.00,45.00,Tuesday
7,-11.25
8,0.0
9,0.0
10,0.0
11,0.0
12,0.0
13,0.0
14,8.620779576890305
15,-12.137098918794953
16,5.484818468666731
17,-9.604285498618197
18,9.27649572581076
2,1, 1, 1, 0, 3,45.00,60.00,Tuesday
7,-11.1
8,0.0
9,0.0
10,0.0
11,0.0
12,0.0
13,0.0
14,8.56354838300846
15,-12.013233175129017
16,5.4627384181947609
17,-9.451099792922549
18,9.214253055681093
2,1, 1, 1, 0, 4, 0.00,15.00,Tuesday
7,-11.1
8,0.0
9,0.0
10,0.0
11,0.0
12,0.0
13,0.0
14,8.502594470135458
15,-11.987574920225243
16,5.401084810971042
17,-9.489871880720444
18,9.151971292888254
2,1, 1, 1, 0, 4,15.00,30.00,Tuesday
7,-11.1
8,0.0
9,0.0
10,0.0
11,0.0
12,0.0
13,0.0
14,8.442074135258756
15,-11.96289270093646
16,5.341765841921074
17,-9.527106590657695
18,9.089334979288891
2,1, 1, 1, 0, 4,30.00,45.00,Tuesday
7,-11.1
8,0.0
9,0.0
10,0.0
11,0.0
12,0.0
13,0.0
14,8.381423286874754
15,-11.939611805316958
16,5.282763555855809
17,-9.56323412063773
18,9.02644870556582
2,1, 1, 1, 0, 4,45.00,60.00,Tuesday
7,-11.1
8,0.0
9,0.0
10,0.0
11,0.0
12,0.0
13,0.0
14,8.320744704859625
15,-11.917607589901192
16,5.223942121961954
17,-9.598255429479309
18,8.963514447137035
2,1, 1, 1, 0, 5, 0.00,15.00,Tuesday
7,-10.975
8,0.0
9,0.0
10,0.0
11,0.0
12,0.0
13,0.0
14,8.265537043761086
15,-11.795897782086798
16,5.195070094675373
17,-9.50835473983966
18,8.901669274129829
2,1, 1, 1, 0, 5,15.00,30.00,Tuesday
7,-10.85
8,0.0
9,0.0
10,0.0
11,0.0
12,0.0
13,0.0
14,8.210550988125844
15,-11.674240417357498
16,5.1647336128523879
17,-9.410417962339807
18,8.841368300453363
2,1, 1, 1, 0, 5,30.00,45.00,Tuesday
7,-10.725
8,0.0
9,0.0
10,0.0
11,0.0
12,0.0
13,0.0
14,8.156585221395347
15,-11.5525605408051
16,5.134798237258394
17,-9.311764454753018
18,8.782387925460059
2,1, 1, 1, 0, 5,45.00,60.00,Tuesday
7,-10.6
8,0.0
9,0.0
10,0.0
11,0.0
12,0.0
13,0.0
14,8.103465094652453
15,-11.430890141575155
16,5.105699230500818
17,-9.2129283186066
18,8.72436868422052
2,1, 1, 1, 0, 6, 0.00,15.00,Tuesday
7,-10.6
8,0.0
9,0.0
10,0.0
11,0.0
12,0.0
13,0.0
14,8.043724450839756
15,-11.432028515678047
16,5.053253079123351
17,-9.214222739141519
18,8.665781149395383
2,1, 1, 1, 0, 6,15.00,30.00,Tuesday
7,-10.6
8,0.0
9,0.0
10,0.0
11,0.0
12,0.0
13,0.0
14,7.984626673127371
15,-11.433136456189909
16,5.001335723936677
17,-9.222099165176303
18,8.605961520560238
2,1, 1, 1, 0, 6,30.00,45.00,Tuesday
7,-10.6
8,0.0
9,0.0
10,0.0
11,0.0
12,0.0
13,0.0
14,7.925029296706641
15,-11.434285110317094
16,4.949560917262147
17,-9.230469098123024
18,8.54520139572383
2,1, 1, 1, 0, 6,45.00,60.00,Tuesday
7,-10.6
8,0.0
9,0.0
10,0.0
11,0.0
12,0.0
13,0.0
14,7.8651676572445139
15,-11.435430697275475
16,4.897443853515256
17,-9.238947296612708
18,8.484003910929458
2,1, 1, 1, 0, 7, 0.00,15.00,Tuesday
7,-10.6
8,0.0
9,0.0
10,0.0
11,0.0
12,0.0
13,0.0
14,7.807164829089092
15,-11.414163168463471
16,4.839973089785417
17,-9.268922363509433
18,8.423023203450951
2,1, 1, 1, 0, 7,15.00,30.00,Tuesday
7,-10.6
8,0.0
9,0.0
10,0.0
11,0.0
12,0.0
13,0.0
14,7.749103417386779
15,-11.393997437499472
16,4.7842872374285438
17,-9.299111122397335
18,8.362583581822263
2,1, 1, 1, 0, 7,30.00,45.00,Tuesday
7,-10.6
8,0.0
9,0.0
10,0.0
11,0.0
12,0.0
13,0.0
14,7.691376508901617
15,-11.37486224241981
16,4.729022792988985
17,-9.328453174504262
18,8.302650121247617
2,1, 1, 1, 0, 7,45.00,60.00,Tuesday
7,-10.6
8,0.0
9,0.0
10,0.0
11,0.0
12,0.0
13,0.0
14,7.633977352096399
15,-11.35669630645662
16,4.674253308376819
17,-9.356835582155953
18,8.243101002148114
2,1, 1, 1, 0, 8, 0.00,15.00,Tuesday
7,-10.45
8,0.0
9,0.0
10,0.0
11,0.0
12,0.0
13,0.0
14,7.5761764866083889
15,-11.306104368985166
16,4.639748020063166
17,-9.302902754603793
18,8.183572226398163
2,1, 1, 1, 0, 8,15.00,30.00,Tuesday
7,-10.3
8,215.5879980222353
9,1.0
10,22.819555959623899
11,1.0
12,22.819555959623899
13,215.5879980222353
14,7.6469389055636969
15,-9.63190458653007
16,4.8864624817911139
17,-9.00517325435078
18,8.14462609177231
2,1, 1, 1, 0, 8,30.00,45.00,Tuesday
7,-10.15
8,1058.5392312119832
9,1.0
10,109.75755355442667
11,1.0
12,109.75755355442667
13,1058.5392312119832
14,8.073005008371969
15,-3.2527088413847164
16,5.988817036546607
17,-8.024970824305968
18,8.184527888983875
2,1, 1, 1, 0, 8,45.00,60.00,Tuesday
7,-10.0
8,1924.8399544048012
9,1.0
10,195.8764694434918
11,1.0
12,195.8764694434918
13,1924.8399544048012
14,8.602292648613674
15,3.2119819588479237
16,7.223560060955833
17,-7.058247642400772
18,8.311313139603845
2,1, 1, 1, 0, 9, 0.00,15.00,Tuesday
7,-9.725
8,2788.1568045040946
9,1.0
10,278.97248314719988
11,1.0
12,278.97248314719988
13,2788.1568045040946
14,9.101958653103394
15,8.399120604236537
16,8.523199390444006
17,-6.189836192961366
18,8.498630478434853
2,1, 1, 1, 0, 9,15.00,30.00,Tuesday
7,-9.45
8,3698.191694964431
9,1.0
10,364.91995730569456
11,1.0
12,364.91995730569456
13,3698.191694964431
14,9.589447462691492
15,13.469493343823443
16,9.830194819413748
17,-5.320355750494059
18,8.73523427068172
2,1, 1, 1, 0, 9,30.00,45.00,Tuesday
7,-9.175
8,4300.2673206835229
9,1.0
10,420.35879993239237
11,1.0
12,420.35879993239237
13,4300.2673206835229
14,9.944153610841909
15,16.225602687696616
16,10.720018821625559
17,-4.783104813756154
18,8.999812275233632
2,1, 1, 1, 0, 9,45.00,60.00,Tuesday
7,-8.9
8,4925.271017558337
9,1.0
10,478.00138373643099
11,1.0
12,478.00138373643099
13,4925.271017558337
14,10.358688051671466
15,19.219175597070664
16,11.5954649910571
17,-4.227093008657107
18,9.281107063836155
2,1, 1, 1, 0,10, 0.00,15.00,Tuesday
7,-8.350000000000002
8,5563.47927965646
9,1.0
10,536.9185644770597
11,1.0
12,536.9185644770597
13,5563.47927965646
14,10.72503282499344
15,20.33149586785124
16,12.513987112275857
17,-3.5824580356996877
18,9.579370881360012
2,1, 1, 1, 0,10,15.00,30.00,Tuesday
7,-7.800000000000001
8,6223.735720388039
9,1.0
10,598.0969199229219
11,1.0
12,598.0969199229219
13,6223.735720388039
14,11.124486756426365
15,21.58062431415118
16,13.450601369511788
17,-2.93612722867897
18,9.720839841688339
2,1, 1, 1, 0,10,30.00,45.00,Tuesday
7,-7.25
8,6656.871608685562
9,1.0
10,637.6133352894237
11,1.0
12,637.6133352894237
13,6656.871608685562
14,11.399720021087863
15,21.635454923494704
16,14.133358060780154
17,-2.4606693874844725
18,9.994442587633744
2,1, 1, 1, 0,10,45.00,60.00,Tuesday
7,-6.7
8,7083.627635407371
9,1.0
10,676.6412284283772
11,1.0
12,676.6412284283772
13,7083.627635407371
14,11.66723873382614
15,21.79153581440364
16,14.752621625060897
17,-1.9899459081127589
18,10.197416012706569
2,1, 1, 1, 0,11, 0.00,15.00,Tuesday
7,-6.275
8,7502.619881932496
9,1.0
10,715.0112779846514
11,1.0
12,715.0112779846514
13,7502.619881932496
14,12.0874820016382
15,23.891323633123734
16,15.426576645956061
17,-1.3326338653907897
18,10.665619878013768
2,1, 1, 1, 0,11,15.00,30.00,Tuesday
7,-5.85
8,7911.749570952164
9,1.0
10,752.5077794605232
11,1.0
12,752.5077794605232
13,7911.749570952164
14,12.560973263581868
15,25.828551414789499
16,16.158298814925275
17,-0.6880465583604973
18,11.102961848575763
2,1, 1, 1, 0,11,30.00,45.00,Tuesday
7,-5.425
8,7790.156876744835
9,1.0
10,742.5988714321785
11,1.0
12,742.5988714321785
13,7790.156876744835
14,12.852917037988423
15,25.680452107890767
16,16.425214027104347
17,-0.36351351889811669
18,11.509753374911055
2,1, 1, 1, 0,11,45.00,60.00,Tuesday
7,-5.0
8,7616.415097398768
9,1.0
10,727.8169025450712
11,1.0
12,727.8169025450712
13,7616.415097398768
14,13.13090468389394
15,25.452401007893628
16,16.593620182109477
17,-0.06481534907322839
18,11.869937949739866
2,1, 1, 1, 0,12, 0.00,15.00,Tuesday
7,-4.575
8,7317.63187899619
9,1.0
10,700.3759009170325
11,1.0
12,700.3759009170325
13,7317.63187899619
14,13.331152577179298
15,24.710581596195146
16,16.62070259924849
17,0.19335518517345919
18,12.179781418059428
2,1, 1, 1, 0,12,15.00,30.00,Tuesday
7,-4.15
8,7096.045470548525
9,1.0
10,681.6705029034473
11,1.0
12,681.6705029034473
13,7096.045470548525
14,13.551506911542452
15,24.381012379527758
16,16.7055635978179
17,0.5100755434270923
18,12.451976519180244
2,1, 1, 1, 0,12,30.00,45.00,Tuesday
7,-3.7249999999999998
8,6229.736928425406
9,1.0
10,602.01865277251
11,1.0
12,602.01865277251
13,6229.736928425406
14,13.465763380617132
15,21.35228751056237
16,16.150862565044748
17,0.43237527849612436
18,12.66208118646133
2,1, 1, 1, 0,12,45.00,60.00,Tuesday
7,-3.3
8,5087.904404183855
9,1.0
10,493.55004396206007
11,1.0
12,493.55004396206007
13,5087.904404183855
14,13.270276769201076
15,17.175358287305167
16,15.167537998243859
17,0.14795824522605018
18,12.777598976280695
2,1, 1, 1, 0,13, 0.00,15.00,Tuesday
7,-3.0249999999999996
8,4201.063393949559
9,1.0
10,412.335026418112
11,1.0
12,412.335026418112
13,4201.063393949559
14,13.135257793208151
15,14.332520069214219
16,14.37196532639905
17,-0.02575521131836922
18,12.816904774371512
2,1, 1, 1, 0,13,15.00,30.00,Tuesday
7,-2.75
8,3076.892122430221
9,1.0
10,305.94037763660148
11,1.0
12,305.94037763660148
13,3076.892122430221
14,12.797663819716109
15,10.16014776202598
16,13.240583523269152
17,-0.3926876293080568
18,12.79108955288311
2,1, 1, 1, 0,13,30.00,45.00,Tuesday
7,-2.475
8,2809.0935899127655
9,1.0
10,281.0763483922329
11,1.0
12,281.0763483922329
13,2809.0935899127655
14,12.765128565380583
15,9.646970011993563
16,12.9287992986645
17,-0.22764215460836113
18,12.744777609357009
2,1, 1, 1, 0,13,45.00,60.00,Tuesday
7,-2.2
8,2546.8736709552365
9,1.0
10,256.7721209415886
11,1.0
12,256.7721209415886
13,2546.8736709552365
14,12.726389763330716
15,9.0425704132138
16,12.710942404928972
17,-0.03852580411285089
18,12.705316295127114
2,1, 1, 1, 0,14, 0.00,15.00,Tuesday
7,-1.9250000000000003
8,2080.536760270814
9,1.0
10,210.73276284570657
11,1.0
12,210.73276284570657
13,2080.536760270814
14,12.555761899988858
15,7.495057223373115
16,12.210596141586052
17,-0.03899484147774501
18,12.669647944454934
2,1, 1, 1, 0,14,15.00,30.00,Tuesday
7,-1.6500000000000002
8,1848.1882299855229
9,1.0
10,189.38488290342594
11,1.0
12,189.38488290342594
13,1848.1882299855229
14,12.524870102763055
15,7.097661436543847
16,11.973262351405083
17,0.12542585751208436
18,12.635481350076118
2,1, 1, 1, 0,14,30.00,45.00,Tuesday
7,-1.375
8,1762.648528253172
9,1.0
10,179.3940297802914
11,1.0
12,179.3940297802914
13,1762.648528253172
14,12.508204891227244
15,7.22156854724019
16,11.915213261679185
17,0.37806838580479509
18,12.604703899528037
2,1, 1, 1, 0,14,45.00,60.00,Tuesday
7,-1.1
8,1676.1315823352277
9,1.0
10,169.43349014176136
11,1.0
12,169.43349014176136
13,1676.1315823352277
14,12.487211644455478
15,7.323017483202717
16,11.847502580391165
17,0.62985998685906
18,12.577263090001223
2,1, 1, 1, 0,15, 0.00,15.00,Tuesday
7,-1.1
8,1764.2336451764168
9,1.0
10,178.15692317953907
11,1.0
12,178.15692317953907
13,1764.2336451764168
14,12.549970158134436
15,8.142134406772
16,11.9508170497773
17,0.7494899125863412
18,12.55834131020319
2,1, 1, 1, 0,15,15.00,30.00,Tuesday
7,-1.1
8,1657.44905719483
9,1.0
10,166.40516310952945
11,1.0
12,166.40516310952945
13,1657.44905719483
14,12.489350737755649
15,7.78081202913406
16,11.832563642306468
17,0.7116355457495729
18,12.54170435326494
2,1, 1, 1, 0,15,30.00,45.00,Tuesday
7,-1.1
8,1397.5312645024297
9,1.0
10,140.8967369711617
11,1.0
12,140.8967369711617
13,1397.5312645024297
14,12.36186858598513
15,6.577769738169347
16,11.500004578932988
17,0.5390660286269622
18,12.513811126658977
2,1, 1, 1, 0,15,45.00,60.00,Tuesday
7,-1.1
8,1150.0543343484979
9,1.0
10,116.57355796743004
11,1.0
12,116.57355796743004
13,1150.0543343484979
14,12.244454768629775
15,5.375536477147605
16,11.16413454894996
17,0.35762405374248376
18,12.46364532516957
2,1, 1, 1, 0,16, 0.00,15.00,Tuesday
7,-1.1
8,912.7487358563033
9,1.0
10,93.14939272689483
11,1.0
12,93.14939272689483
13,912.7487358563033
14,12.123822031586246
15,4.328877739649188
16,10.857609064658505
17,0.26080741033524648
18,12.393344374736813
2,1, 1, 1, 0,16,15.00,30.00,Tuesday
7,-1.1
8,566.636069103818
9,1.0
10,57.94047897402063
11,1.0
12,57.94047897402063
13,566.636069103818
14,11.907874516190832
15,2.211876007787435
16,10.393567678375689
17,0.03941254736616884
18,12.297407240874403
2,1, 1, 1, 0,16,30.00,45.00,Tuesday
7,-1.1
8,439.3280485110057
9,1.0
10,45.38251793443488
11,1.0
12,45.38251793443488
13,439.3280485110057
14,11.818111136288298
15,1.6092873005392759
16,10.169374717640267
17,0.026411891306850067
18,12.191185450210048
2,1, 1, 1, 0,16,45.00,60.00,Tuesday
7,-1.1
8,306.6800834820858
9,1.0
10,32.02625108222755
11,1.0
12,32.02625108222755
13,306.6800834820858
14,11.68855565484297
15,0.7556267340922599
16,9.96911012667556
17,0.014366276608825502
18,12.087594957880992
2,1, 1, 1, 0,17, 0.00,15.00,Tuesday
7,-1.1
8,168.21359625367695
9,1.0
10,17.762198626050539
11,1.0
12,17.762198626050539
13,168.21359625367695
14,11.53554368517006
15,-0.48269596718284049
16,9.719371940640827
17,-0.10837222087798182
18,11.984511951948882
2,1, 1, 1, 0,17,15.00,30.00,Tuesday
7,-1.1
8,0.0
9,0.0
10,0.0
11,0.0
12,0.0
13,0.0
14,11.332256300327915
15,-2.313720764127577
16,9.402556493296288
17,-0.3511671485733814
18,11.868136746758406
2,1, 1, 1, 0,17,30.00,45.00,Tuesday
7,-1.1
8,0.0
9,0.0
10,0.0
11,0.0
12,0.0
13,0.0
14,11.26525506322441
15,-2.443337458723281
16,9.301613612406868
17,-0.31613868670115155
18,11.75453578653991
2,1, 1, 1, 0,17,45.00,60.00,Tuesday
7,-1.1
8,0.0
9,0.0
10,0.0
11,0.0
12,0.0
13,0.0
14,11.18192536935292
15,-2.623494884228198
16,9.246631336224653
17,-0.2683289630961667
18,11.65845396994373
2,1, 1, 1, 0,18, 0.00,15.00,Tuesday
7,-1.25
8,0.0
9,0.0
10,0.0
11,0.0
12,0.0
13,0.0
14,11.11027382800286
15,-2.7727259541496926
16,9.151022692478535
17,-0.41717680453626829
18,11.580184532804868
2,1, 1, 1, 0,18,15.00,30.00,Tuesday
7,-1.4
8,0.0
9,0.0
10,0.0
11,0.0
12,0.0
13,0.0
14,11.044576482053307
15,-2.925203453046158
16,9.072204527784379
17,-0.549189703686352
18,11.51369990975156
2,1, 1, 1, 0,18,30.00,45.00,Tuesday
7,-1.5499999999999999
8,0.0
9,0.0
10,0.0
11,0.0
12,0.0
13,0.0
14,10.983158368940899
15,-3.077383082164769
16,8.995268731258989
17,-0.6855799165649614
18,11.453229167369808
2,1, 1, 1, 0,18,45.00,60.00,Tuesday
7,-1.7
8,0.0
9,0.0
10,0.0
11,0.0
12,0.0
13,0.0
14,10.923676437033425
15,-3.229728077825244
16,8.921305956510878
17,-0.8212708043143948
18,11.395371744715562
2,1, 1, 1, 0,19, 0.00,15.00,Tuesday
7,-1.825
8,0.0
9,0.0
10,0.0
11,0.0
12,0.0
13,0.0
14,10.886086268518217
15,-3.0990503916322118
16,8.834032386667503
17,-1.0133742307988883
18,11.341932158384868
2,1, 1, 1, 0,19,15.00,30.00,Tuesday
7,-1.9500000000000002
8,0.0
9,0.0
10,0.0
11,0.0
12,0.0
13,0.0
14,10.849049081514618
15,-3.047574337170578
16,8.7620255627412
17,-1.18847902214452
18,11.294875381565586
2,1, 1, 1, 0,19,30.00,45.00,Tuesday
7,-2.075
8,0.0
9,0.0
10,0.0
11,0.0
12,0.0
13,0.0
14,10.806297315221258
15,-3.1255942865287329
16,8.705780393412795
17,-1.315190692366059
18,11.252706483662026
2,1, 1, 1, 0,19,45.00,60.00,Tuesday
7,-2.2
8,0.0
9,0.0
10,0.0
11,0.0
12,0.0
13,0.0
14,10.767178334281212
15,-3.1167236030406659
16,8.638456276748287
17,-1.4804389461117467
18,11.212369745133112
2,1, 1, 1, 0,20, 0.00,15.00,Tuesday
7,-1.9250000000000003
8,0.0
9,0.0
10,0.0
11,0.0
12,0.0
13,0.0
14,10.744272912452792
15,-2.8188437933664085
16,8.654566105273262
17,-1.2712120947138033
18,11.174574889600756
2,1, 1, 1, 0,20,15.00,30.00,Tuesday
7,-1.6500000000000002
8,0.0
9,0.0
10,0.0
11,0.0
12,0.0
13,0.0
14,10.720709430282254
15,-2.5236845567145407
16,8.67035143899352
17,-1.0518022298497272
18,11.139902465920326
2,1, 1, 1, 0,20,30.00,45.00,Tuesday
7,-1.375
8,0.0
9,0.0
10,0.0
11,0.0
12,0.0
13,0.0
14,10.699019803870423
15,-2.2296150941301886
16,8.687362969642436
17,-0.8303478756354821
18,11.107921984467414
2,1, 1, 1, 0,20,45.00,60.00,Tuesday
7,-1.1
8,0.0
9,0.0
10,0.0
11,0.0
12,0.0
13,0.0
14,10.678860568628992
15,-1.936675830706824
16,8.706327386588214
17,-0.6068636859852745
18,11.077930045337452
2,1, 1, 1, 0,21, 0.00,15.00,Tuesday
7,-1.25
8,0.0
9,0.0
10,0.0
11,0.0
12,0.0
13,0.0
14,10.621111124818843
15,-2.2041045929617395
16,8.665474561270344
17,-0.6694277842926226
18,11.043346991978515
2,1, 1, 1, 0,21,15.00,30.00,Tuesday
7,-1.4
8,0.0
9,0.0
10,0.0
11,0.0
12,0.0
13,0.0
14,10.56415850296984
15,-2.413315251973026
16,8.607632475520859
17,-0.7608132108185259
18,10.99977865337181
2,1, 1, 1, 0,21,30.00,45.00,Tuesday
7,-1.5499999999999999
8,0.0
9,0.0
10,0.0
11,0.0
12,0.0
13,0.0
14,10.49474860905965
15,-2.7392740591035436
16,8.556820301027074
17,-0.8092963057404177
18,10.94668416725717
2,1, 1, 1, 0,21,45.00,60.00,Tuesday
7,-1.7
8,0.0
9,0.0
10,0.0
11,0.0
12,0.0
13,0.0
14,10.420070884134319
15,-3.169852605806713
16,8.50524921546139
17,-0.8242508462351452
18,10.886426305659754
2,1, 1, 1, 0,22, 0.00,15.00,Tuesday
7,-1.5499999999999999
8,0.0
9,0.0
10,0.0
11,0.0
12,0.0
13,0.0
14,10.407309917041353
15,-2.7072540781831035
16,8.453297041539884
17,-0.8211227367667107
18,10.832102135604949
2,1, 1, 1, 0,22,15.00,30.00,Tuesday
7,-1.4
8,0.0
9,0.0
10,0.0
11,0.0
12,0.0
13,0.0
14,10.385373791972237
15,-2.393911976090374
16,8.435778796656564
17,-0.7789939060784263
18,10.790531516715684
2,1, 1, 1, 0,22,30.00,45.00,Tuesday
7,-1.25
8,0.0
9,0.0
10,0.0
11,0.0
12,0.0
13,0.0
14,10.363389725380927
15,-2.181338814172123
16,8.429911251002068
17,-0.6921293902101979
18,10.759150466243599
2,1, 1, 1, 0,22,45.00,60.00,Tuesday
7,-1.1
8,0.0
9,0.0
10,0.0
11,0.0
12,0.0
13,0.0
14,10.345274115732226
15,-1.9122748657965055
16,8.420616411939023
17,-0.6241769759545264
18,10.732599270891683
2,1, 1, 1, 0,23, 0.00,15.00,Tuesday
7,-1.25
8,0.0
9,0.0
10,0.0
11,0.0
12,0.0
13,0.0
14,10.286868115671008
15,-2.2154023422679125
16,8.335539361439828
17,-0.9121533095552081
18,10.700605806063047
2,1, 1, 1, 0,23,15.00,30.00,Tuesday
7,-1.4
8,0.0
9,0.0
10,0.0
11,0.0
12,0.0
13,0.0
14,10.23061082319819
15,-2.520126447953172
16,8.237077121767925
17,-1.2126045941042208
18,10.658513970501922
2,1, 1, 1, 0,23,30.00,45.00,Tuesday
7,-1.5499999999999999
8,0.0
9,0.0
10,0.0
11,0.0
12,0.0
13,0.0
14,10.169470346588219
15,-2.82550119067698
16,8.136537739620167
17,-1.514648525929033
18,10.607845604855524
2,1, 1, 1, 0,23,45.00,60.00,Tuesday
7,-1.7
8,0.0
9,0.0
10,0.0
11,0.0
12,0.0
13,0.0
14,10.104498175091269
15,-3.1312213014602165
16,8.031717517925359
17,-1.8187735107999288
18,10.551699047588866
2,1, 1, 1, 0,24, 0.00,15.00,Tuesday
7,-1.7
8,0.0
9,0.0
10,0.0
11,0.0
12,0.0
13,0.0
14,10.054635012277336
15,-3.1855928714721037
16,7.972046596275959
17,-1.8872524229147985
18,10.495507088115831
2,1, 1, 1, 0,24,15.00,30.00,Tuesday
7,-1.7
8,0.0
9,0.0
10,0.0
11,0.0
12,0.0
13,0.0
14,10.002851980456846
15,-3.2404592727252865
16,7.917709137526344
17,-1.951728077441544
18,10.442020098039848
2,1, 1, 1, 0,24,30.00,45.00,Tuesday
7,-1.7
8,0.0
9,0.0
10,0.0
11,0.0
12,0.0
13,0.0
14,9.95227800790606
15,-3.295220923652305
16,7.8632797497097048
17,-2.0159619761240039
18,10.391039149749006
2,1, 1, 1, 0,24,45.00,60.00,Tuesday
7,-1.7
8,0.0
9,0.0
10,0.0
11,0.0
12,0.0
13,0.0
14,9.902560816140597
15,-3.3499878041161805
16,7.8098575390199589
17,-2.0798651135518186
18,10.341470676810904
End of Data
 Number of Records Written=        1152
