Program Version,EnergyPlus, Version 9.5.0-de239b2e5f, YMD=2023.02.17 15:25
1,5,Environment Title[],Latitude[deg],Longitude[deg],Time Zone[],Elevation[m]
2,8,Day of Simulation[],Month[],Day of Month[],DST Indicator[1=yes 0=no],Hour[],StartMinute[],EndMinute[],DayType
3,5,Cumulative Day of Simulation[],Month[],Day of Month[],DST Indicator[1=yes 0=no],DayType  ! When Daily Report Variables Requested
4,2,Cumulative Days of Simulation[],Month[]  ! When Monthly Report Variables Requested
5,1,Cumulative Days of Simulation[] ! When Run Period Report Variables Requested
6,1,Calendar Year of Simulation[] ! When Annual Report Variables Requested
7,1,Environment,Site Outdoor Air Drybulb Temperature [C] !TimeStep
8,1,ZONE ONE,Zone Windows Total Transmitted Solar Radiation Rate [W] !TimeStep
9,1,ZN001:WALL001,Surface Outside Face Sunlit Fraction [] !TimeStep
10,1,ZN001:WALL001,Surface Outside Face Incident Solar Radiation Rate per Area [W/m2] !TimeStep
11,1,ZN001:WALL001:WIN001,Surface Outside Face Sunlit Fraction [] !TimeStep
12,1,ZN001:WALL001:WIN001,Surface Outside Face Incident Solar Radiation Rate per Area [W/m2] !TimeStep
13,1,ZN001:WALL001:WIN001,Surface Window Transmitted Solar Radiation Rate [W] !TimeStep
14,1,ZN001:WALL001,Surface Inside Face Temperature [C] !TimeStep
15,1,ZN001:WALL001,Surface Outside Face Temperature [C] !TimeStep
16,1,ZN001:WALL001:WIN001,Surface Inside Face Temperature [C] !TimeStep
17,1,ZN001:WALL001:WIN001,Surface Outside Face Temperature [C] !TimeStep
18,1,ZONE ONE,Zone Mean Air Temperature [C] !TimeStep
End of Data Dictionary
1,RUN PERIOD 1,  41.98, -87.92,  -6.00, 201.00
2,1, 1, 1, 0, 1, 0.00,15.00,Tuesday
7,-4.324999999999999
8,0.0
9,0.0
10,0.0
11,0.0
12,0.0
13,0.0
14,8.09350689590532
15,-5.856637191786509
16,4.414186562836335
17,-3.2547373255439426
18,8.591412061524512
2,1, 1, 1, 0, 1,15.00,30.00,Tuesday
7,-6.949999999999999
8,0.0
9,0.0
10,0.0
11,0.0
12,0.0
13,0.0
14,7.901850044767081
15,-8.323766452772894
16,3.6600086693212576
17,-5.223123552617039
18,8.478244819267538
2,1, 1, 1, 0, 1,30.00,45.00,Tuesday
7,-9.575
8,0.0
9,0.0
10,0.0
11,0.0
12,0.0
13,0.0
14,7.688322203556206
15,-10.798906521713312
16,2.898301725251315
17,-7.197411726286191
18,8.331540837842491
2,1, 1, 1, 0, 1,45.00,60.00,Tuesday
7,-12.2
8,0.0
9,0.0
10,0.0
11,0.0
12,0.0
13,0.0
14,7.4578147978950259
15,-13.280695852934203
16,2.121237371102211
17,-9.179636138384922
18,8.162154100873157
2,1, 1, 1, 0, 2, 0.00,15.00,Tuesday
7,-12.075
8,0.0
9,0.0
10,0.0
11,0.0
12,0.0
13,0.0
14,7.375917555379032
15,-13.081499726452565
16,2.0705328032200898
17,-9.032437379338376
18,8.010593492546767
2,1, 1, 1, 0, 2,15.00,30.00,Tuesday
7,-11.95
8,0.0
9,0.0
10,0.0
11,0.0
12,0.0
13,0.0
14,7.281475537899617
15,-12.904669691570698
16,2.045609822139113
17,-8.917081504192766
18,7.894153066523851
2,1, 1, 1, 0, 2,30.00,45.00,Tuesday
7,-11.825
8,0.0
9,0.0
10,0.0
11,0.0
12,0.0
13,0.0
14,7.2055951977464229
15,-12.726643132826635
16,2.0190533045379199
17,-8.780421862930098
18,7.805839087483953
2,1, 1, 1, 0, 2,45.00,60.00,Tuesday
7,-11.7
8,0.0
9,0.0
10,0.0
11,0.0
12,0.0
13,0.0
14,7.141643313377013
15,-12.548714685912375
16,2.0135310892922009
17,-8.659433927507508
18,7.733436349785533
2,1, 1, 1, 0, 3, 0.00,15.00,Tuesday
7,-11.549999999999999
8,0.0
9,0.0
10,0.0
11,0.0
12,0.0
13,0.0
14,7.079634752274152
15,-12.421532611651914
16,2.014428416386636
17,-8.499171588903949
18,7.667511651511134
2,1, 1, 1, 0, 3,15.00,30.00,Tuesday
7,-11.399999999999999
8,0.0
9,0.0
10,0.0
11,0.0
12,0.0
13,0.0
14,7.020913721813513
15,-12.295675319095104
16,2.025052721039117
17,-8.358079783209633
18,7.60377639187859
2,1, 1, 1, 0, 3,30.00,45.00,Tuesday
7,-11.25
8,0.0
9,0.0
10,0.0
11,0.0
12,0.0
13,0.0
14,6.962976715489658
15,-12.171279770939819
16,2.028827985382975
17,-8.196696712724702
18,7.540980344923351
2,1, 1, 1, 0, 3,45.00,60.00,Tuesday
7,-11.1
8,0.0
9,0.0
10,0.0
11,0.0
12,0.0
13,0.0
14,6.905734476852184
15,-12.048406349753466
16,2.041763419007907
17,-8.054888542420372
18,7.479128200998266
2,1, 1, 1, 0, 4, 0.00,15.00,Tuesday
7,-11.1
8,0.0
9,0.0
10,0.0
11,0.0
12,0.0
13,0.0
14,6.84428882501004
15,-12.0217424382786
16,1.969119192212645
17,-8.10587267259757
18,7.416815668003038
2,1, 1, 1, 0, 4,15.00,30.00,Tuesday
7,-11.1
8,0.0
9,0.0
10,0.0
11,0.0
12,0.0
13,0.0
14,6.7832247503967288
15,-11.99611435897356
16,1.9048873884303249
17,-8.163236611800699
18,7.353573247830415
2,1, 1, 1, 0, 4,30.00,45.00,Tuesday
7,-11.1
8,0.0
9,0.0
10,0.0
11,0.0
12,0.0
13,0.0
14,6.72178227453028
15,-11.971940003719709
16,1.8418069745946469
17,-8.220334161748042
18,7.289695518064998
2,1, 1, 1, 0, 4,45.00,60.00,Tuesday
7,-11.1
8,0.0
9,0.0
10,0.0
11,0.0
12,0.0
13,0.0
14,6.66016076215691
15,-11.949086306212044
16,1.7790703151772505
17,-8.276278695500082
18,7.225593970301724
2,1, 1, 1, 0, 5, 0.00,15.00,Tuesday
7,-10.975
8,0.0
9,0.0
10,0.0
11,0.0
12,0.0
13,0.0
14,6.604348432048166
15,-11.827368160099832
16,1.7702493334012957
17,-8.201674847658297
18,7.162868878688144
2,1, 1, 1, 0, 5,15.00,30.00,Tuesday
7,-10.85
8,0.0
9,0.0
10,0.0
11,0.0
12,0.0
13,0.0
14,6.548857185672771
15,-11.705701147051844
16,1.7578945360376679
17,-8.118995501758946
18,7.102095866592235
2,1, 1, 1, 0, 5,30.00,45.00,Tuesday
7,-10.725
8,0.0
9,0.0
10,0.0
11,0.0
12,0.0
13,0.0
14,6.494587446297457
15,-11.584006721359284
16,1.7456907710311498
17,-8.035201837918976
18,7.042947802059905
2,1, 1, 1, 0, 5,45.00,60.00,Tuesday
7,-10.6
8,0.0
9,0.0
10,0.0
11,0.0
12,0.0
13,0.0
14,6.441313325523825
15,-11.462320724411582
16,1.7343448369950352
17,-7.951032354071913
18,6.984937649451263
2,1, 1, 1, 0, 6, 0.00,15.00,Tuesday
7,-10.6
8,0.0
9,0.0
10,0.0
11,0.0
12,0.0
13,0.0
14,6.381164627905889
15,-11.463478069582493
16,1.6859761955699924
17,-7.95777185954114
18,6.926265226929799
2,1, 1, 1, 0, 6,15.00,30.00,Tuesday
7,-10.6
8,0.0
9,0.0
10,0.0
11,0.0
12,0.0
13,0.0
14,6.32167412014145
15,-11.464595306874147
16,1.6394364042988628
17,-7.9703959880902179
18,6.8661887247852049
2,1, 1, 1, 0, 6,30.00,45.00,Tuesday
7,-10.6
8,0.0
9,0.0
10,0.0
11,0.0
12,0.0
13,0.0
14,6.261631089998776
15,-11.465755406790607
16,1.5931919549024656
17,-7.983657310845047
18,6.805052254644872
2,1, 1, 1, 0, 6,45.00,60.00,Tuesday
7,-10.6
8,0.0
9,0.0
10,0.0
11,0.0
12,0.0
13,0.0
14,6.201295449461128
15,-11.466912019058992
16,1.546629572051188
17,-7.997113791217544
18,6.7434301770138449
2,1, 1, 1, 0, 7, 0.00,15.00,Tuesday
7,-10.6
8,0.0
9,0.0
10,0.0
11,0.0
12,0.0
13,0.0
14,6.142769499521117
15,-11.444822640541629
16,1.4851902984396475
17,-8.045988337996392
18,6.681882513677049
2,1, 1, 1, 0, 7,15.00,30.00,Tuesday
7,-10.6
8,0.0
9,0.0
10,0.0
11,0.0
12,0.0
13,0.0
14,6.084140520575278
15,-11.42388280852751
16,1.4264716953846346
17,-8.095431348362468
18,6.620723687258905
2,1, 1, 1, 0, 7,30.00,45.00,Tuesday
7,-10.6
8,0.0
9,0.0
10,0.0
11,0.0
12,0.0
13,0.0
14,6.0257802804611428
15,-11.404011824541787
16,1.3684963333354859
17,-8.143869206267539
18,6.559972597906464
2,1, 1, 1, 0, 7,45.00,60.00,Tuesday
7,-10.6
8,0.0
9,0.0
10,0.0
11,0.0
12,0.0
13,0.0
14,5.967710262312263
15,-11.385145258803519
16,1.311202963151345
17,-8.19103634640345
18,6.499561827299985
2,1, 1, 1, 0, 8, 0.00,15.00,Tuesday
7,-10.45
8,0.0
9,0.0
10,0.0
11,0.0
12,0.0
13,0.0
14,5.90946670711033
15,-11.335285925010748
16,1.2983852568573867
17,-8.132050817542677
18,6.439508559823454
2,1, 1, 1, 0, 8,15.00,30.00,Tuesday
7,-10.3
8,215.5879980222353
9,1.0
10,22.819555959623899
11,1.0
12,22.819555959623899
13,215.5879980222353
14,5.9835621012683168
15,-9.661154117614525
16,1.572753421356765
17,-7.808798287013872
18,6.400661622978858
2,1, 1, 1, 0, 8,30.00,45.00,Tuesday
7,-10.15
8,1058.5392312119832
9,1.0
10,109.75755355442667
11,1.0
12,109.75755355442667
13,1058.5392312119832
14,6.420814197133349
15,-3.284792710204378
16,2.72273933643919
17,-6.761110873458335
18,6.441314615832275
2,1, 1, 1, 0, 8,45.00,60.00,Tuesday
7,-10.0
8,1924.8399544048012
9,1.0
10,195.8764694434918
11,1.0
12,195.8764694434918
13,1924.8399544048012
14,6.9962656811510659
15,3.203561712396595
16,3.9671575860436407
17,-5.698884608444303
18,6.568285773460462
2,1, 1, 1, 0, 9, 0.00,15.00,Tuesday
7,-9.725
8,2788.1568045040946
9,1.0
10,278.97248314719988
11,1.0
12,278.97248314719988
13,2788.1568045040946
14,7.446288130077072
15,8.365599296410146
16,5.194298043768072
17,-4.773125153318233
18,6.7572638889982079
2,1, 1, 1, 0, 9,15.00,30.00,Tuesday
7,-9.45
8,3698.191694964431
9,1.0
10,364.91995730569456
11,1.0
12,364.91995730569456
13,3698.191694964431
14,7.935058959805054
15,13.445015155753313
16,6.5213119617552028
17,-3.8240958294302347
18,6.999677362752612
2,1, 1, 1, 0, 9,30.00,45.00,Tuesday
7,-9.175
8,4300.2673206835229
9,1.0
10,420.35879993239237
11,1.0
12,420.35879993239237
13,4300.2673206835229
14,8.295086588163377
15,16.201315053569134
16,7.47222931279498
17,-3.210514049284143
18,7.2683910945556919
2,1, 1, 1, 0, 9,45.00,60.00,Tuesday
7,-8.9
8,4925.271017558337
9,1.0
10,478.00138373643099
11,1.0
12,478.00138373643099
13,4925.271017558337
14,8.711916136466173
15,19.195754060211408
16,8.39261669857683
17,-2.595828107940747
18,7.550772145745062
2,1, 1, 1, 0,10, 0.00,15.00,Tuesday
7,-8.350000000000002
8,5563.47927965646
9,1.0
10,536.9185644770597
11,1.0
12,536.9185644770597
13,5563.47927965646
14,9.078744947121323
15,20.310143153167816
16,9.32286849016009
17,-1.9762299317769135
18,7.847703527278845
2,1, 1, 1, 0,10,15.00,30.00,Tuesday
7,-7.800000000000001
8,6223.735720388039
9,1.0
10,598.0969199229219
11,1.0
12,598.0969199229219
13,6223.735720388039
14,9.477596753506349
15,21.5607452075655
16,10.26655576771384
17,-1.3522119131994828
18,7.988190122187076
2,1, 1, 1, 0,10,30.00,45.00,Tuesday
7,-7.25
8,6656.871608685562
9,1.0
10,637.6133352894237
11,1.0
12,637.6133352894237
13,6656.871608685562
14,9.751133310795025
15,21.61697212573974
16,10.938864204315792
17,-0.9189168706692499
18,8.259614926777556
2,1, 1, 1, 0,10,45.00,60.00,Tuesday
7,-6.7
8,7083.627635407371
9,1.0
10,676.6412284283772
11,1.0
12,676.6412284283772
13,7083.627635407371
14,10.016733357790827
15,21.774185706981073
16,11.557618280335533
17,-0.4911737113311574
18,8.46126099276
2,1, 1, 1, 0,11, 0.00,15.00,Tuesday
7,-6.275
8,7502.619881932496
9,1.0
10,715.0112779846514
11,1.0
12,715.0112779846514
13,7502.619881932496
14,10.436997287057018
15,23.873890561445326
16,12.276968688623697
17,0.17072468407297948
18,8.92562478404949
2,1, 1, 1, 0,11,15.00,30.00,Tuesday
7,-5.85
8,7911.749570952164
9,1.0
10,752.5077794605232
11,1.0
12,752.5077794605232
13,7911.749570952164
14,10.910295033795908
15,25.811228280495646
16,13.037059644373642
17,0.8421552784348592
18,9.359503755482344
2,1, 1, 1, 0,11,30.00,45.00,Tuesday
7,-5.425
8,7790.156876744835
9,1.0
10,742.5988714321785
11,1.0
12,742.5988714321785
13,7790.156876744835
14,11.201377532084921
15,25.663300396310917
16,13.298201469813819
17,1.1664210755344585
18,9.764809493019133
2,1, 1, 1, 0,11,45.00,60.00,Tuesday
7,-5.0
8,7616.415097398768
9,1.0
10,727.8169025450712
11,1.0
12,727.8169025450712
13,7616.415097398768
14,11.479681081887366
15,25.435238479523826
16,13.468266149744295
17,1.4440732330932634
18,10.124589863362426
2,1, 1, 1, 0,12, 0.00,15.00,Tuesday
7,-4.575
8,7317.63187899619
9,1.0
10,700.3759009170325
11,1.0
12,700.3759009170325
13,7317.63187899619
14,11.680320889418013
15,24.69342202733493
16,13.499604100238912
17,1.6654961782188594
18,10.434573461832354
2,1, 1, 1, 0,12,15.00,30.00,Tuesday
7,-4.15
8,7096.045470548525
9,1.0
10,681.6705029034473
11,1.0
12,681.6705029034473
13,7096.045470548525
14,11.901092805986444
15,24.363802989048954
16,13.598996794420714
17,1.9505576112377412
18,10.707365536077182
2,1, 1, 1, 0,12,30.00,45.00,Tuesday
7,-3.7249999999999998
8,6229.736928425406
9,1.0
10,602.01865277251
11,1.0
12,602.01865277251
13,6229.736928425406
14,11.81479095039634
15,21.335131232947874
16,13.021482367002136
17,1.7873324907700977
18,10.917985368938626
2,1, 1, 1, 0,12,45.00,60.00,Tuesday
7,-3.3
8,5087.904404183855
9,1.0
10,493.55004396206007
11,1.0
12,493.55004396206007
13,5087.904404183855
14,11.621164689020532
15,17.158116749153569
16,12.004114721673432
17,1.3755835681132567
18,11.033960506520059
2,1, 1, 1, 0,13, 0.00,15.00,Tuesday
7,-3.0249999999999996
8,4201.063393949559
9,1.0
10,412.335026418112
11,1.0
12,412.335026418112
13,4201.063393949559
14,11.488428483640512
15,14.314939043204968
16,11.178064707313297
17,1.1047934714356416
18,11.074496785724503
2,1, 1, 1, 0,13,15.00,30.00,Tuesday
7,-2.75
8,3076.892122430221
9,1.0
10,305.94037763660148
11,1.0
12,305.94037763660148
13,3076.892122430221
14,11.156694289423497
15,10.142712514187873
16,10.017087385113087
17,0.6239197297679766
18,11.050039432809639
2,1, 1, 1, 0,13,30.00,45.00,Tuesday
7,-2.475
8,2809.0935899127655
9,1.0
10,281.0763483922329
11,1.0
12,281.0763483922329
13,2809.0935899127655
14,11.13441955021779
15,9.631808667996826
16,9.785141787011014
17,0.7448427563364248
18,11.003097374719104
2,1, 1, 1, 0,13,45.00,60.00,Tuesday
7,-2.2
8,2546.8736709552365
9,1.0
10,256.7721209415886
11,1.0
12,256.7721209415886
13,2546.8736709552365
14,11.093636037969432
15,9.025243226063563
16,9.63273300808305
17,0.8996825627965563
18,10.962690110142809
2,1, 1, 1, 0,14, 0.00,15.00,Tuesday
7,-1.9250000000000003
8,2080.536760270814
9,1.0
10,210.73276284570657
11,1.0
12,210.73276284570657
13,2080.536760270814
14,10.933412688002921
15,7.479307701448324
16,9.207503208223216
17,0.8577767306027795
18,10.922940410744202
2,1, 1, 1, 0,14,15.00,30.00,Tuesday
7,-1.6500000000000002
8,1848.1882299855229
9,1.0
10,189.38488290342594
11,1.0
12,189.38488290342594
13,1848.1882299855229
14,10.8901635292634
15,7.0739007836044289
16,9.0335414862285
17,0.9993295141925955
18,10.884928512106033
2,1, 1, 1, 0,14,30.00,45.00,Tuesday
7,-1.375
8,1762.648528253172
9,1.0
10,179.3940297802914
11,1.0
12,179.3940297802914
13,1762.648528253172
14,10.874854091842462
15,7.200112988865309
16,9.02345982219515
17,1.2406162466801334
18,10.851522828560526
2,1, 1, 1, 0,14,45.00,60.00,Tuesday
7,-1.1
8,1676.1315823352277
9,1.0
10,169.43349014176136
11,1.0
12,169.43349014176136
13,1676.1315823352277
14,10.855873582396294
15,7.30086419622469
16,9.00665591041735
17,1.4795044164367255
18,10.822733032076706
2,1, 1, 1, 0,15, 0.00,15.00,Tuesday
7,-1.1
8,1764.2336451764168
9,1.0
10,178.15692317953907
11,1.0
12,178.15692317953907
13,1764.2336451764168
14,10.922793126189342
15,8.120305368506243
16,9.122784175357424
17,1.6223618287781392
18,10.803221417933287
2,1, 1, 1, 0,15,15.00,30.00,Tuesday
7,-1.1
8,1657.44905719483
9,1.0
10,166.40516310952945
11,1.0
12,166.40516310952945
13,1657.44905719483
14,10.862720673297558
15,7.758641159637638
16,9.01558549935612
17,1.590931167674512
18,10.785841804899798
2,1, 1, 1, 0,15,30.00,45.00,Tuesday
7,-1.1
8,1397.5312645024297
9,1.0
10,140.8967369711617
11,1.0
12,140.8967369711617
13,1397.5312645024297
14,10.730901916236295
15,6.553658772451321
16,8.700216473278943
17,1.4097711212925788
18,10.758771342208535
2,1, 1, 1, 0,15,45.00,60.00,Tuesday
7,-1.1
8,1150.0543343484979
9,1.0
10,116.57355796743004
11,1.0
12,116.57355796743004
13,1150.0543343484979
14,10.589797151348132
15,5.3454941191170699
16,8.379902790877395
17,1.222001380903862
18,10.715659785953916
2,1, 1, 1, 0,16, 0.00,15.00,Tuesday
7,-1.1
8,912.7487358563033
9,1.0
10,93.14939272689483
11,1.0
12,93.14939272689483
13,912.7487358563033
14,10.472236296755641
15,4.300558069831352
16,8.101709038056584
17,1.1241352739105537
18,10.654651232909547
2,1, 1, 1, 0,16,15.00,30.00,Tuesday
7,-1.1
8,566.636069103818
9,1.0
10,57.94047897402063
11,1.0
12,57.94047897402063
13,566.636069103818
14,10.254574907148964
15,2.1804063299217817
16,7.6635932495012188
17,0.893101438276517
18,10.567742430042087
2,1, 1, 1, 0,16,30.00,45.00,Tuesday
7,-1.1
8,439.3280485110057
9,1.0
10,45.38251793443488
11,1.0
12,45.38251793443488
13,439.3280485110057
14,10.169369124098262
15,1.5757285373960486
16,7.479356598140612
17,0.8894566775592239
18,10.468648640040705
2,1, 1, 1, 0,16,45.00,60.00,Tuesday
7,-1.1
8,306.6800834820858
9,1.0
10,32.02625108222755
11,1.0
12,32.02625108222755
13,306.6800834820858
14,10.041787663600255
15,0.7184903097823487
16,7.311296068352021
17,0.8863164986976244
18,10.370348184246259
2,1, 1, 1, 0,17, 0.00,15.00,Tuesday
7,-1.1
8,168.21359625367695
9,1.0
10,17.762198626050539
11,1.0
12,17.762198626050539
13,168.21359625367695
14,9.889495503232665
15,-0.5243940833372973
16,7.083485680831416
17,0.7790027382699236
18,10.271256167813517
2,1, 1, 1, 0,17,15.00,30.00,Tuesday
7,-1.1
8,0.0
9,0.0
10,0.0
11,0.0
12,0.0
13,0.0
14,9.685131154572144
15,-2.357789316166694
16,6.762005586936027
17,0.5231025013571298
18,10.157790804384265
2,1, 1, 1, 0,17,30.00,45.00,Tuesday
7,-1.1
8,0.0
9,0.0
10,0.0
11,0.0
12,0.0
13,0.0
14,9.621008345584098
15,-2.4895626597002917
16,6.698832532840754
17,0.5801529946392634
18,10.046669771667397
2,1, 1, 1, 0,17,45.00,60.00,Tuesday
7,-1.1
8,0.0
9,0.0
10,0.0
11,0.0
12,0.0
13,0.0
14,9.53965275698283
15,-2.6736902814845155
16,6.670280110625072
17,0.6498568283213899
18,9.952946461883883
2,1, 1, 1, 0,18, 0.00,15.00,Tuesday
7,-1.25
8,0.0
9,0.0
10,0.0
11,0.0
12,0.0
13,0.0
14,9.469653300674415
15,-2.8224626845332927
16,6.564241613808008
17,0.5150743250015921
18,9.876517185847698
2,1, 1, 1, 0,18,15.00,30.00,Tuesday
7,-1.4
8,0.0
9,0.0
10,0.0
11,0.0
12,0.0
13,0.0
14,9.405286835645386
15,-2.975008007161929
16,6.475074870010758
17,0.38670545596278318
18,9.811367094815653
2,1, 1, 1, 0,18,30.00,45.00,Tuesday
7,-1.5499999999999999
8,0.0
9,0.0
10,0.0
11,0.0
12,0.0
13,0.0
14,9.344978153265432
15,-3.1272050052741928
16,6.390540985069379
17,0.2592177959033961
18,9.75190364504082
2,1, 1, 1, 0,18,45.00,60.00,Tuesday
7,-1.7
8,0.0
9,0.0
10,0.0
11,0.0
12,0.0
13,0.0
14,9.286431843427696
15,-3.279573227743626
16,6.308636672462853
17,0.132484418196384
18,9.69488371925906
2,1, 1, 1, 0,19, 0.00,15.00,Tuesday
7,-1.825
8,0.0
9,0.0
10,0.0
11,0.0
12,0.0
13,0.0
14,9.250047611184984
15,-3.1430621323281846
16,6.186342109616703
17,-0.09467066656304724
18,9.64179821733222
2,1, 1, 1, 0,19,15.00,30.00,Tuesday
7,-1.9500000000000002
8,0.0
9,0.0
10,0.0
11,0.0
12,0.0
13,0.0
14,9.213109031261839
15,-3.0865402377069168
16,6.081185470773448
17,-0.3094213902905949
18,9.594459887978904
2,1, 1, 1, 0,19,30.00,45.00,Tuesday
7,-2.075
8,0.0
9,0.0
10,0.0
11,0.0
12,0.0
13,0.0
14,9.172020672116718
15,-3.1632262295964259
16,6.01269369721274
17,-0.4432637507097752
18,9.55199964577072
2,1, 1, 1, 0,19,45.00,60.00,Tuesday
7,-2.2
8,0.0
9,0.0
10,0.0
11,0.0
12,0.0
13,0.0
14,9.13316248725863
15,-3.1499840363531277
16,5.910741669646882
17,-0.6478147351710959
18,9.511329114530291
2,1, 1, 1, 0,20, 0.00,15.00,Tuesday
7,-1.9250000000000003
8,0.0
9,0.0
10,0.0
11,0.0
12,0.0
13,0.0
14,9.111819924173265
15,-2.8510757049855894
16,5.963688219564688
17,-0.4856830482992791
18,9.473965915589846
2,1, 1, 1, 0,20,15.00,30.00,Tuesday
7,-1.6500000000000002
8,0.0
9,0.0
10,0.0
11,0.0
12,0.0
13,0.0
14,9.089872964014589
15,-2.55496690217379
16,6.001698265954587
17,-0.29324498242726806
18,9.440560029596894
2,1, 1, 1, 0,20,30.00,45.00,Tuesday
7,-1.375
8,0.0
9,0.0
10,0.0
11,0.0
12,0.0
13,0.0
14,9.070197672043588
15,-2.259991075599963
16,6.045322370869258
17,-0.10574912407190596
18,9.41047190252927
2,1, 1, 1, 0,20,45.00,60.00,Tuesday
7,-1.1
8,0.0
9,0.0
10,0.0
11,0.0
12,0.0
13,0.0
14,9.052317431382074
15,-1.9661877269361464
16,6.091805260992885
17,0.08453978203408497
18,9.38277367873194
2,1, 1, 1, 0,21, 0.00,15.00,Tuesday
7,-1.25
8,0.0
9,0.0
10,0.0
11,0.0
12,0.0
13,0.0
14,8.995593835020497
15,-2.2383115208648296
16,6.069180782298872
17,0.07725902343338476
18,9.350710022961822
2,1, 1, 1, 0,21,15.00,30.00,Tuesday
7,-1.4
8,0.0
9,0.0
10,0.0
11,0.0
12,0.0
13,0.0
14,8.93957654707314
15,-2.4500701090088699
16,6.013995013713668
17,0.020440266357127258
18,9.309429005290774
2,1, 1, 1, 0,21,30.00,45.00,Tuesday
7,-1.5499999999999999
8,0.0
9,0.0
10,0.0
11,0.0
12,0.0
13,0.0
14,8.871170476255936
15,-2.7823714789821558
16,5.991089982466974
17,0.026476058412299609
18,9.258629192264437
2,1, 1, 1, 0,21,45.00,60.00,Tuesday
7,-1.7
8,0.0
9,0.0
10,0.0
11,0.0
12,0.0
13,0.0
14,8.797550437180032
15,-3.220372840229288
16,5.96487193409331
17,0.07338436843923546
18,9.200760179692553
2,1, 1, 1, 0,22, 0.00,15.00,Tuesday
7,-1.5499999999999999
8,0.0
9,0.0
10,0.0
11,0.0
12,0.0
13,0.0
14,8.787604425954724
15,-2.7492107701278107
16,5.895423788893254
17,0.010047005019600875
18,9.148268954988629
2,1, 1, 1, 0,22,15.00,30.00,Tuesday
7,-1.4
8,0.0
9,0.0
10,0.0
11,0.0
12,0.0
13,0.0
14,8.768163039531606
15,-2.4302108507304944
16,5.867096241355341
17,-0.01249553809441295
18,9.107930936422827
2,1, 1, 1, 0,22,30.00,45.00,Tuesday
7,-1.25
8,0.0
9,0.0
10,0.0
11,0.0
12,0.0
13,0.0
14,8.74831733210018
15,-2.2151457456287066
16,5.869053505129159
17,0.036081536091728597
18,9.077704091086322
2,1, 1, 1, 0,22,45.00,60.00,Tuesday
7,-1.1
8,0.0
9,0.0
10,0.0
11,0.0
12,0.0
13,0.0
14,8.732058200856005
15,-1.9415409171305796
16,5.854027784456775
17,0.03989221188112424
18,9.05237439134171
2,1, 1, 1, 0,23, 0.00,15.00,Tuesday
7,-1.25
8,0.0
9,0.0
10,0.0
11,0.0
12,0.0
13,0.0
14,8.673703476995163
15,-2.244837432161655
16,5.7356360415606109
17,-0.22107633439333086
18,9.02127688513761
2,1, 1, 1, 0,23,15.00,30.00,Tuesday
7,-1.4
8,0.0
9,0.0
10,0.0
11,0.0
12,0.0
13,0.0
14,8.617552652419839
15,-2.549597377025856
16,5.6090997583470429
17,-0.4950912019671705
18,8.979604610453406
2,1, 1, 1, 0,23,30.00,45.00,Tuesday
7,-1.5499999999999999
8,0.0
9,0.0
10,0.0
11,0.0
12,0.0
13,0.0
14,8.5563923883106
15,-2.855012717053658
16,5.4806476788309059
17,-0.770380355698876
18,8.92892774509005
2,1, 1, 1, 0,23,45.00,60.00,Tuesday
7,-1.7
8,0.0
9,0.0
10,0.0
11,0.0
12,0.0
13,0.0
14,8.491258708116887
15,-3.1607716243878256
16,5.348230955878591
17,-1.0474129980626117
18,8.872463657870782
2,1, 1, 1, 0,24, 0.00,15.00,Tuesday
7,-1.7
8,0.0
9,0.0
10,0.0
11,0.0
12,0.0
13,0.0
14,8.441972196027227
15,-3.2150943037663355
16,5.290133131297239
17,-1.1128361766758417
18,8.816141479192999
2,1, 1, 1, 0,24,15.00,30.00,Tuesday
7,-1.7
8,0.0
9,0.0
10,0.0
11,0.0
12,0.0
13,0.0
14,8.390739559627411
15,-3.269953128614499
16,5.2347057684526139
17,-1.1752061600274147
18,8.762876923621669
2,1, 1, 1, 0,24,30.00,45.00,Tuesday
7,-1.7
8,0.0
9,0.0
10,0.0
11,0.0
12,0.0
13,0.0
14,8.340830682165743
15,-3.324701155551754
16,5.179204613190336
17,-1.2375708834367743
18,8.712404655329193
2,1, 1, 1, 0,24,45.00,60.00,Tuesday
7,-1.7
8,0.0
9,0.0
10,0.0
11,0.0
12,0.0
13,0.0
14,8.291859456638699
15,-3.3794538743483168
16,5.124638750900317
17,-1.2997228680150102
18,8.663509340814273
End of Data
 Number of Records Written=        1152
