Program Version,EnergyPlus, Version 9.5.0-de239b2e5f, YMD=2023.02.17 15:24
1,5,Environment Title[],Latitude[deg],Longitude[deg],Time Zone[],Elevation[m]
2,8,Day of Simulation[],Month[],Day of Month[],DST Indicator[1=yes 0=no],Hour[],StartMinute[],EndMinute[],DayType
3,5,Cumulative Day of Simulation[],Month[],Day of Month[],DST Indicator[1=yes 0=no],DayType  ! When Daily Report Variables Requested
4,2,Cumulative Days of Simulation[],Month[]  ! When Monthly Report Variables Requested
5,1,Cumulative Days of Simulation[] ! When Run Period Report Variables Requested
6,1,Calendar Year of Simulation[] ! When Annual Report Variables Requested
7,1,Environment,Site Outdoor Air Drybulb Temperature [C] !TimeStep
8,1,ZONE ONE,Zone Windows Total Transmitted Solar Radiation Rate [W] !TimeStep
9,1,ZN001:WALL001,Surface Outside Face Sunlit Fraction [] !TimeStep
10,1,ZN001:WALL001,Surface Outside Face Incident Solar Radiation Rate per Area [W/m2] !TimeStep
11,1,ZN001:WALL001:WIN001,Surface Outside Face Sunlit Fraction [] !TimeStep
12,1,ZN001:WALL001:WIN001,Surface Outside Face Incident Solar Radiation Rate per Area [W/m2] !TimeStep
13,1,ZN001:WALL001:WIN001,Surface Window Transmitted Solar Radiation Rate [W] !TimeStep
14,1,ZN001:WALL001,Surface Inside Face Temperature [C] !TimeStep
15,1,ZN001:WALL001,Surface Outside Face Temperature [C] !TimeStep
16,1,ZN001:WALL001:WIN001,Surface Inside Face Temperature [C] !TimeStep
17,1,ZN001:WALL001:WIN001,Surface Outside Face Temperature [C] !TimeStep
18,1,ZONE ONE,Zone Mean Air Temperature [C] !TimeStep
End of Data Dictionary
1,RUN PERIOD 1,  41.98, -87.92,  -6.00, 201.00
2,1, 1, 1, 0, 1, 0.00,15.00,Tuesday
7,-4.324999999999999
8,0.0
9,0.0
10,0.0
11,0.0
12,0.0
13,0.0
14,8.910864623204742
15,-5.841755269041992
16,5.899642574979339
17,-3.7355786759750915
18,9.441182939004503
2,1, 1, 1, 0, 1,15.00,30.00,Tuesday
7,-6.949999999999999
8,0.0
9,0.0
10,0.0
11,0.0
12,0.0
13,0.0
14,8.722479552933513
15,-8.308653720881046
16,5.273448643624079
17,-5.801885846944856
18,9.332024886256085
2,1, 1, 1, 0, 1,30.00,45.00,Tuesday
7,-9.575
8,0.0
9,0.0
10,0.0
11,0.0
12,0.0
13,0.0
14,8.513515860676464
15,-10.783482609078737
16,4.639819766200162
17,-7.874155003628857
18,9.191423242826059
2,1, 1, 1, 0, 1,45.00,60.00,Tuesday
7,-12.2
8,0.0
9,0.0
10,0.0
11,0.0
12,0.0
13,0.0
14,8.288539158573326
15,-13.264961426673642
16,3.990782598657063
17,-9.95388853160813
18,9.0294784800755
2,1, 1, 1, 0, 2, 0.00,15.00,Tuesday
7,-12.075
8,0.0
9,0.0
10,0.0
11,0.0
12,0.0
13,0.0
14,8.209333848051433
15,-13.06554940958046
16,3.9188785533187344
17,-9.79264963390915
18,8.883764567182649
2,1, 1, 1, 0, 2,15.00,30.00,Tuesday
7,-11.95
8,0.0
9,0.0
10,0.0
11,0.0
12,0.0
13,0.0
14,8.117410436848884
15,-12.888692505426598
16,3.8777503940972339
17,-9.653257869288439
18,8.770711312219449
2,1, 1, 1, 0, 2,30.00,45.00,Tuesday
7,-11.825
8,0.0
9,0.0
10,0.0
11,0.0
12,0.0
13,0.0
14,8.042998585552608
15,-12.710689999636092
16,3.8429135699229848
17,-9.513282210809678
18,8.684072474059257
2,1, 1, 1, 0, 2,45.00,60.00,Tuesday
7,-11.7
8,0.0
9,0.0
10,0.0
11,0.0
12,0.0
13,0.0
14,7.979733649419822
15,-12.532781258053959
16,3.820833758783465
17,-9.370487275578853
18,8.612389593563606
2,1, 1, 1, 0, 3, 0.00,15.00,Tuesday
7,-11.549999999999999
8,0.0
9,0.0
10,0.0
11,0.0
12,0.0
13,0.0
14,7.918184355938492
15,-12.40516762647808
16,3.8086694673145304
17,-9.217632172044432
18,8.546773880562848
2,1, 1, 1, 0, 3,15.00,30.00,Tuesday
7,-11.399999999999999
8,0.0
9,0.0
10,0.0
11,0.0
12,0.0
13,0.0
14,7.859632940870002
15,-12.278855366383035
16,3.7981914890041255
17,-9.064462272922924
18,8.483056798070642
2,1, 1, 1, 0, 3,30.00,45.00,Tuesday
7,-11.25
8,0.0
9,0.0
10,0.0
11,0.0
12,0.0
13,0.0
14,7.801857950593534
15,-12.15398479161029
16,3.7893673268083036
17,-8.910973418005142
18,8.420166113398125
2,1, 1, 1, 0, 3,45.00,60.00,Tuesday
7,-11.1
8,0.0
9,0.0
10,0.0
11,0.0
12,0.0
13,0.0
14,7.744578351692594
15,-12.030609084833716
16,3.781167990385825
17,-8.757440875902376
18,8.358057700749768
2,1, 1, 1, 0, 4, 0.00,15.00,Tuesday
7,-11.1
8,0.0
9,0.0
10,0.0
11,0.0
12,0.0
13,0.0
14,7.683410383946616
15,-12.004454845511753
16,3.7164646420613964
17,-8.80729856597668
18,8.295744652035284
2,1, 1, 1, 0, 4,15.00,30.00,Tuesday
7,-11.1
8,0.0
9,0.0
10,0.0
11,0.0
12,0.0
13,0.0
14,7.622640502299585
15,-11.97930369469194
16,3.655527337330682
17,-8.855603498351229
18,8.232844420323332
2,1, 1, 1, 0, 4,30.00,45.00,Tuesday
7,-11.1
8,0.0
9,0.0
10,0.0
11,0.0
12,0.0
13,0.0
14,7.561638443053008
15,-11.955579661086027
16,3.594996277152518
17,-8.902771085123846
18,8.169529777445062
2,1, 1, 1, 0, 4,45.00,60.00,Tuesday
7,-11.1
8,0.0
9,0.0
10,0.0
11,0.0
12,0.0
13,0.0
14,7.500543554518687
15,-11.933154460171309
16,3.5346905576834048
17,-8.948704912660788
18,8.106086006243015
2,1, 1, 1, 0, 5, 0.00,15.00,Tuesday
7,-10.975
8,0.0
9,0.0
10,0.0
11,0.0
12,0.0
13,0.0
14,7.445075943176673
15,-11.811439862843383
16,3.515310131743604
17,-8.866158690830276
18,8.043857771653068
2,1, 1, 1, 0, 5,15.00,30.00,Tuesday
7,-10.85
8,0.0
9,0.0
10,0.0
11,0.0
12,0.0
13,0.0
14,7.389870324841183
15,-11.689777333230177
16,3.4932943734784205
17,-8.775384200596534
18,7.9833527260461889
2,1, 1, 1, 0, 5,30.00,45.00,Tuesday
7,-10.725
8,0.0
9,0.0
10,0.0
11,0.0
12,0.0
13,0.0
14,7.335775083598027
15,-11.568090164680483
16,3.471568998565999
17,-8.683704807121842
18,7.924301146354161
2,1, 1, 1, 0, 5,45.00,60.00,Tuesday
7,-10.6
8,0.0
9,0.0
10,0.0
11,0.0
12,0.0
13,0.0
14,7.28259211504116
15,-11.446412014219723
16,3.450697283271438
17,-8.591760022553502
18,7.866288039492906
2,1, 1, 1, 0, 6, 0.00,15.00,Tuesday
7,-10.6
8,0.0
9,0.0
10,0.0
11,0.0
12,0.0
13,0.0
14,7.2226638381261909
15,-11.447559219837777
16,3.3999336950600425
17,-8.59551486325239
18,7.807658703138079
2,1, 1, 1, 0, 6,15.00,30.00,Tuesday
7,-10.6
8,0.0
9,0.0
10,0.0
11,0.0
12,0.0
13,0.0
14,7.1633867264124169
15,-11.448671517077475
16,3.350478792621743
17,-8.605598512772474
18,7.747716391041115
2,1, 1, 1, 0, 6,30.00,45.00,Tuesday
7,-10.6
8,0.0
9,0.0
10,0.0
11,0.0
12,0.0
13,0.0
14,7.103584252583587
15,-11.449825466580835
16,3.301237299784532
17,-8.616246844895273
18,7.686778990209971
2,1, 1, 1, 0, 6,45.00,60.00,Tuesday
7,-10.6
8,0.0
9,0.0
10,0.0
11,0.0
12,0.0
13,0.0
14,7.04350447320068
15,-11.450976125206969
16,3.2516602511448697
17,-8.62704185107441
18,7.625382784361212
2,1, 1, 1, 0, 7, 0.00,15.00,Tuesday
7,-10.6
8,0.0
9,0.0
10,0.0
11,0.0
12,0.0
13,0.0
14,6.9852667153807259
15,-11.429302388329731
16,3.1926282892148949
17,-8.666804289139293
18,7.564143212197074
2,1, 1, 1, 0, 7,15.00,30.00,Tuesday
7,-10.6
8,0.0
9,0.0
10,0.0
11,0.0
12,0.0
13,0.0
14,6.926952414875612
15,-11.408753671489386
16,3.1358474841428007
17,-8.706995558085169
18,7.503382071179943
2,1, 1, 1, 0, 7,30.00,45.00,Tuesday
7,-10.6
8,0.0
9,0.0
10,0.0
11,0.0
12,0.0
13,0.0
14,6.8689456434432059
15,-11.389254350713708
16,3.0796321173188518
17,-8.746219823817512
18,7.443087814472255
2,1, 1, 1, 0, 7,45.00,60.00,Tuesday
7,-10.6
8,0.0
9,0.0
10,0.0
11,0.0
12,0.0
13,0.0
14,6.811252150186259
15,-11.370741682573473
16,3.0239959864317145
17,-8.784291010320885
18,7.383161387369405
2,1, 1, 1, 0, 8, 0.00,15.00,Tuesday
7,-10.45
8,0.0
9,0.0
10,0.0
11,0.0
12,0.0
13,0.0
14,6.753255570544715
15,-11.320511023527587
16,2.999283854501698
17,-8.727151972088337
18,7.323403683056836
2,1, 1, 1, 0, 8,15.00,30.00,Tuesday
7,-10.3
8,215.5879980222353
9,1.0
10,22.819555959623899
11,1.0
12,22.819555959623899
13,215.5879980222353
14,6.826064195645216
15,-9.646350565939209
16,3.2575467340008119
17,-8.417217428905474
18,7.284570561218371
2,1, 1, 1, 0, 8,30.00,45.00,Tuesday
7,-10.15
8,1058.5392312119832
9,1.0
10,109.75755355442667
11,1.0
12,109.75755355442667
13,1058.5392312119832
14,7.256906010812847
15,-3.2685830195549059
16,4.379573548985377
17,-7.4142103855737109
18,7.324895874655854
2,1, 1, 1, 0, 8,45.00,60.00,Tuesday
7,-10.0
8,1924.8399544048012
9,1.0
10,195.8764694434918
11,1.0
12,195.8764694434918
13,1924.8399544048012
14,7.8023322095996658
15,3.2033247521129799
16,5.609796125470439
17,-6.400307811042467
18,7.452236838592044
2,1, 1, 1, 0, 9, 0.00,15.00,Tuesday
7,-9.725
8,2788.1568045040946
9,1.0
10,278.97248314719988
11,1.0
12,278.97248314719988
13,2788.1568045040946
14,8.285158648181378
15,8.383358666499556
16,6.851156426538239
17,-5.512103011278896
18,7.640918050848893
2,1, 1, 1, 0, 9,15.00,30.00,Tuesday
7,-9.45
8,3698.191694964431
9,1.0
10,364.91995730569456
11,1.0
12,364.91995730569456
13,3698.191694964431
14,8.77370746591199
15,13.457292919911176
16,8.2231872309643
17,-4.601424349871763
18,7.879355866576943
2,1, 1, 1, 0, 9,30.00,45.00,Tuesday
7,-9.175
8,4300.2673206835229
9,1.0
10,420.35879993239237
11,1.0
12,420.35879993239237
13,4300.2673206835229
14,9.130272085208338
15,16.21361613700741
16,9.131669995357129
17,-4.033796988979816
18,8.144719728058936
2,1, 1, 1, 0, 9,45.00,60.00,Tuesday
7,-8.9
8,4925.271017558337
9,1.0
10,478.00138373643099
11,1.0
12,478.00138373643099
13,4925.271017558337
14,9.54536606219839
15,19.20759247569685
16,10.02495690221042
17,-3.4537369074154755
18,8.425809882585972
2,1, 1, 1, 0,10, 0.00,15.00,Tuesday
7,-8.350000000000002
8,5563.47927965646
9,1.0
10,536.9185644770597
11,1.0
12,536.9185644770597
13,5563.47927965646
14,9.911688431504344
15,20.320940269847936
16,10.951062246480433
17,-2.827522315689066
18,8.723211024476079
2,1, 1, 1, 0,10,15.00,30.00,Tuesday
7,-7.800000000000001
8,6223.735720388039
9,1.0
10,598.0969199229219
11,1.0
12,598.0969199229219
13,6223.735720388039
14,10.310808606495442
15,21.57080027690568
16,11.893492701799233
17,-2.1970377925302957
18,8.864436295587371
2,1, 1, 1, 0,10,30.00,45.00,Tuesday
7,-7.25
8,6656.871608685562
9,1.0
10,637.6133352894237
11,1.0
12,637.6133352894237
13,6656.871608685562
14,10.58540936916732
15,21.626327847894186
16,12.574286553541527
17,-1.7448344567029608
18,9.137263287025931
2,1, 1, 1, 0,10,45.00,60.00,Tuesday
7,-6.7
8,7083.627635407371
9,1.0
10,676.6412284283772
11,1.0
12,676.6412284283772
13,7083.627635407371
14,10.852121258476356
15,21.78296815156585
16,13.196029509986488
17,-1.2972375354009956
18,9.339690182213369
2,1, 1, 1, 0,11, 0.00,15.00,Tuesday
7,-6.275
8,7502.619881932496
9,1.0
10,715.0112779846514
11,1.0
12,715.0112779846514
13,7502.619881932496
14,11.272408258201868
15,23.882715426040588
16,13.889034898539819
17,-0.6326958075392213
18,9.806196311550327
2,1, 1, 1, 0,11,15.00,30.00,Tuesday
7,-5.85
8,7911.749570952164
9,1.0
10,752.5077794605232
11,1.0
12,752.5077794605232
13,7911.749570952164
14,11.745884635581831
15,25.819997640980885
16,14.633809777418947
17,0.022920811863286873
18,10.241931756143672
2,1, 1, 1, 0,11,30.00,45.00,Tuesday
7,-5.425
8,7790.156876744835
9,1.0
10,742.5988714321785
11,1.0
12,742.5988714321785
13,7790.156876744835
14,12.03750419608346
15,25.671984508249144
16,14.899639914782029
17,0.3415297342367012
18,10.648136259789112
2,1, 1, 1, 0,11,45.00,60.00,Tuesday
7,-5.0
8,7616.415097398768
9,1.0
10,727.8169025450712
11,1.0
12,727.8169025450712
13,7616.415097398768
14,12.315730553076309
15,25.44392944387949
16,15.069026197203414
17,0.6307669655633958
18,11.008241496930554
2,1, 1, 1, 0,12, 0.00,15.00,Tuesday
7,-4.575
8,7317.63187899619
9,1.0
10,700.3759009170325
11,1.0
12,700.3759009170325
13,7317.63187899619
14,12.51623241442518
15,24.702112137229944
16,15.098072686456135
17,0.8728439966506016
18,11.3182183415142
2,1, 1, 1, 0,12,15.00,30.00,Tuesday
7,-4.15
8,7096.045470548525
9,1.0
10,681.6705029034473
11,1.0
12,681.6705029034473
13,7096.045470548525
14,12.736819538521689
15,24.37251810531475
16,15.189632651044235
17,1.1755105924257805
18,11.590731153710495
2,1, 1, 1, 0,12,30.00,45.00,Tuesday
7,-3.7249999999999998
8,6229.736928425406
9,1.0
10,602.01865277251
11,1.0
12,602.01865277251
13,6229.736928425406
14,12.65087988124599
15,21.343821335993476
16,14.627065533065946
17,1.0595684354114497
18,11.801135081053605
2,1, 1, 1, 0,12,45.00,60.00,Tuesday
7,-3.3
8,5087.904404183855
9,1.0
10,493.55004396206007
11,1.0
12,493.55004396206007
13,5087.904404183855
14,12.45636175521294
15,17.1668547615745
16,13.62591123007951
17,0.7221713294138681
18,11.916715223975905
2,1, 1, 1, 0,13, 0.00,15.00,Tuesday
7,-3.0249999999999996
8,4201.063393949559
9,1.0
10,412.335026418112
11,1.0
12,412.335026418112
13,4201.063393949559
14,12.32257936968359
15,14.323854534735814
16,12.820604930417176
17,0.508097120404102
18,11.956050121875814
2,1, 1, 1, 0,13,15.00,30.00,Tuesday
7,-2.75
8,3076.892122430221
9,1.0
10,305.94037763660148
11,1.0
12,305.94037763660148
13,3076.892122430221
14,11.986770528873425
15,10.151588975121335
16,11.635793046646427
17,0.083564631941897
18,11.931151481935569
2,1, 1, 1, 0,13,30.00,45.00,Tuesday
7,-2.475
8,2809.0935899127655
9,1.0
10,281.0763483922329
11,1.0
12,281.0763483922329
13,2809.0935899127655
14,11.960728997817027
15,9.64059760741975
16,11.358819409825856
17,0.2320657197502669
18,11.885245253799863
2,1, 1, 1, 0,13,45.00,60.00,Tuesday
7,-2.2
8,2546.8736709552365
9,1.0
10,256.7721209415886
11,1.0
12,256.7721209415886
13,2546.8736709552365
14,11.921186796979038
15,9.034430634263935
16,11.178106232904782
17,0.4070550573450191
18,11.845773301069956
2,1, 1, 1, 0,14, 0.00,15.00,Tuesday
7,-1.9250000000000003
8,2080.536760270814
9,1.0
10,210.73276284570657
11,1.0
12,210.73276284570657
13,2080.536760270814
14,11.75811734232289
15,7.488244495382023
16,10.724861897114693
17,0.37997369394804539
18,11.807651474644459
2,1, 1, 1, 0,14,15.00,30.00,Tuesday
7,-1.6500000000000002
8,1848.1882299855229
9,1.0
10,189.38488290342594
11,1.0
12,189.38488290342594
13,1848.1882299855229
14,11.716227322720562
15,7.086066521122899
16,10.517081502672113
17,0.5453709402484037
18,11.771572637117825
2,1, 1, 1, 0,14,30.00,45.00,Tuesday
7,-1.375
8,1762.648528253172
9,1.0
10,179.3940297802914
11,1.0
12,179.3940297802914
13,1762.648528253172
14,11.70004580328725
15,7.211005890133432
16,10.48013031872324
17,0.7941522803092767
18,11.739771133897455
2,1, 1, 1, 0,14,45.00,60.00,Tuesday
7,-1.1
8,1676.1315823352277
9,1.0
10,169.43349014176136
11,1.0
12,169.43349014176136
13,1676.1315823352277
14,11.679855735753927
15,7.311979700464844
16,10.436014783798499
17,1.0412090745488172
18,11.711812478946614
2,1, 1, 1, 0,15, 0.00,15.00,Tuesday
7,-1.1
8,1764.2336451764168
9,1.0
10,178.15692317953907
11,1.0
12,178.15692317953907
13,1764.2336451764168
14,11.746112389587232
15,8.131865340536426
16,10.544410814306957
17,1.1723024057752128
18,11.692422850861686
2,1, 1, 1, 0,15,15.00,30.00,Tuesday
7,-1.1
8,1657.44905719483
9,1.0
10,166.40516310952945
11,1.0
12,166.40516310952945
13,1657.44905719483
14,11.68787158734473
15,7.7705007258081759
16,10.430843998484875
17,1.138695936382419
18,11.67544719633945
2,1, 1, 1, 0,15,30.00,45.00,Tuesday
7,-1.1
8,1397.5312645024297
9,1.0
10,140.8967369711617
11,1.0
12,140.8967369711617
13,1397.5312645024297
14,11.548760389313364
15,6.562121648951842
16,10.10691579314664
17,0.9639606976678579
18,11.64881063456405
2,1, 1, 1, 0,15,45.00,60.00,Tuesday
7,-1.1
8,1150.0543343484979
9,1.0
10,116.57355796743004
11,1.0
12,116.57355796743004
13,1150.0543343484979
14,11.427816250959035
15,5.362164569988589
16,9.778089358865885
17,0.7815140049455067
18,11.602317650388303
2,1, 1, 1, 0,16, 0.00,15.00,Tuesday
7,-1.1
8,912.7487358563033
9,1.0
10,93.14939272689483
11,1.0
12,93.14939272689483
13,912.7487358563033
14,11.307573123237449
15,4.314821537223024
16,9.4867980962116
17,0.6875881938789803
18,11.536233469890677
2,1, 1, 1, 0,16,15.00,30.00,Tuesday
7,-1.1
8,566.636069103818
9,1.0
10,57.94047897402063
11,1.0
12,57.94047897402063
13,566.636069103818
14,11.091505719173144
15,2.1964439860842486
16,9.035512805068152
17,0.465432880066146
18,11.44419232992811
2,1, 1, 1, 0,16,30.00,45.00,Tuesday
7,-1.1
8,439.3280485110057
9,1.0
10,45.38251793443488
11,1.0
12,45.38251793443488
13,439.3280485110057
14,11.003607505435458
15,1.5926966496620328
16,8.830489962488685
17,0.4602016733347227
18,11.341032321153675
2,1, 1, 1, 0,16,45.00,60.00,Tuesday
7,-1.1
8,306.6800834820858
9,1.0
10,32.02625108222755
11,1.0
12,32.02625108222755
13,306.6800834820858
14,10.874884088162992
15,0.7372878337885429
16,8.645120825441723
17,0.45597353822569178
18,11.239731945163666
2,1, 1, 1, 0,17, 0.00,15.00,Tuesday
7,-1.1
8,168.21359625367695
9,1.0
10,17.762198626050539
11,1.0
12,17.762198626050539
13,168.21359625367695
14,10.722148584436763
15,-0.5032870629076821
16,8.406860594191926
17,0.3447367245578903
18,11.138384357737856
2,1, 1, 1, 0,17,15.00,30.00,Tuesday
7,-1.1
8,0.0
9,0.0
10,0.0
11,0.0
12,0.0
13,0.0
14,10.518280959157926
15,-2.3354865831990119
16,8.088120040463764
17,0.09863735463261492
18,11.023258022229154
2,1, 1, 1, 0,17,30.00,45.00,Tuesday
7,-1.1
8,0.0
9,0.0
10,0.0
11,0.0
12,0.0
13,0.0
14,10.452564289217467
15,-2.4662009355130247
16,8.003834123521756
17,0.14702326483109119
18,10.910745428549376
2,1, 1, 1, 0,17,45.00,60.00,Tuesday
7,-1.1
8,0.0
9,0.0
10,0.0
11,0.0
12,0.0
13,0.0
14,10.37012073945026
15,-2.648327543102796
16,7.960983429445548
17,0.20948918992365862
18,10.815720188185758
2,1, 1, 1, 0,18, 0.00,15.00,Tuesday
7,-1.25
8,0.0
9,0.0
10,0.0
11,0.0
12,0.0
13,0.0
14,10.299239760457328
15,-2.797334171396898
16,7.861552162091243
17,0.06960001809329697
18,10.738263733119643
2,1, 1, 1, 0,18,15.00,30.00,Tuesday
7,-1.4
8,0.0
9,0.0
10,0.0
11,0.0
12,0.0
13,0.0
14,10.234116160340597
15,-2.9498461863998846
16,7.776267141283938
17,-0.06336608569836244
18,10.67237075725005
2,1, 1, 1, 0,18,30.00,45.00,Tuesday
7,-1.5499999999999999
8,0.0
9,0.0
10,0.0
11,0.0
12,0.0
13,0.0
14,10.173203267058648
15,-3.102035776303833
16,7.695730595922328
17,-0.1954350628012662
18,10.61235175127518
2,1, 1, 1, 0,18,45.00,60.00,Tuesday
7,-1.7
8,0.0
9,0.0
10,0.0
11,0.0
12,0.0
13,0.0
14,10.114146985481968
15,-3.2543930467760679
16,7.6180221924507809
17,-0.3268381172553063
18,10.554874535564038
2,1, 1, 1, 0,19, 0.00,15.00,Tuesday
7,-1.825
8,0.0
9,0.0
10,0.0
11,0.0
12,0.0
13,0.0
14,10.077130814761264
15,-3.120822916487091
16,7.514785400806204
17,-0.5412233421169503
18,10.501600143110256
2,1, 1, 1, 0,19,15.00,30.00,Tuesday
7,-1.9500000000000002
8,0.0
9,0.0
10,0.0
11,0.0
12,0.0
13,0.0
14,10.040603199536175
15,-3.066845473333466
16,7.427980720644086
17,-0.7401560016313624
18,10.454486168469357
2,1, 1, 1, 0,19,30.00,45.00,Tuesday
7,-2.075
8,0.0
9,0.0
10,0.0
11,0.0
12,0.0
13,0.0
14,9.998193965399454
15,-3.1442248523737525
16,7.3663967784744959
17,-0.8715525516533376
18,10.412244314892286
2,1, 1, 1, 0,19,45.00,60.00,Tuesday
7,-2.2
8,0.0
9,0.0
10,0.0
11,0.0
12,0.0
13,0.0
14,9.959281280699769
15,-3.133165829543308
16,7.283614571453768
17,-1.0594432071552547
18,10.371786017108854
2,1, 1, 1, 0,20, 0.00,15.00,Tuesday
7,-1.9250000000000003
8,0.0
9,0.0
10,0.0
11,0.0
12,0.0
13,0.0
14,9.93709672967055
15,-2.8347805774830419
16,7.315322029770414
17,-0.8696026657107723
18,10.334184676188427
2,1, 1, 1, 0,20,15.00,30.00,Tuesday
7,-1.6500000000000002
8,0.0
9,0.0
10,0.0
11,0.0
12,0.0
13,0.0
14,9.914322106694348
15,-2.5391537863745095
16,7.343653409516321
17,-0.6676602856268232
18,10.30011329223995
2,1, 1, 1, 0,20,30.00,45.00,Tuesday
7,-1.375
8,0.0
9,0.0
10,0.0
11,0.0
12,0.0
13,0.0
14,9.893589885086135
15,-2.2446361824140288
16,7.373425934148827
17,-0.46313070474275266
18,10.269045510902237
2,1, 1, 1, 0,20,45.00,60.00,Tuesday
7,-1.1
8,0.0
9,0.0
10,0.0
11,0.0
12,0.0
13,0.0
14,9.87451968225281
15,-1.9512702463420922
16,7.405446804562075
17,-0.25607658565712657
18,10.240157281040013
2,1, 1, 1, 0,21, 0.00,15.00,Tuesday
7,-1.25
8,0.0
9,0.0
10,0.0
11,0.0
12,0.0
13,0.0
14,9.817227831459422
15,-2.22101898956175
16,7.371193203631378
17,-0.2875181858092901
18,10.206728703635037
2,1, 1, 1, 0,21,15.00,30.00,Tuesday
7,-1.4
8,0.0
9,0.0
10,0.0
11,0.0
12,0.0
13,0.0
14,9.760707184534079
15,-2.4314942617081094
16,7.314829307923958
17,-0.3610937217731589
18,10.164201189301929
2,1, 1, 1, 0,21,30.00,45.00,Tuesday
7,-1.5499999999999999
8,0.0
9,0.0
10,0.0
11,0.0
12,0.0
13,0.0
14,9.69171147770945
15,-2.7605955023952015
16,7.274931235495387
17,-0.3754708325746492
18,10.112113233967222
2,1, 1, 1, 0,21,45.00,60.00,Tuesday
7,-1.7
8,0.0
9,0.0
10,0.0
11,0.0
12,0.0
13,0.0
14,9.617501970673886
15,-3.1948634905332868
16,7.235921655264178
17,-0.35685698452891759
18,10.052923339122609
2,1, 1, 1, 0,22, 0.00,15.00,Tuesday
7,-1.5499999999999999
8,0.0
9,0.0
10,0.0
11,0.0
12,0.0
13,0.0
14,9.606075958370635
15,-2.728020533793908
16,7.176887193216089
17,-0.39242649241174379
18,9.99944636966655
2,1, 1, 1, 0,22,15.00,30.00,Tuesday
7,-1.4
8,0.0
9,0.0
10,0.0
11,0.0
12,0.0
13,0.0
14,9.58535223501756
15,-2.41187314444638
16,7.156691590857577
17,-0.3901381237468513
18,9.958532334210572
2,1, 1, 1, 0,22,30.00,45.00,Tuesday
7,-1.25
8,0.0
9,0.0
10,0.0
11,0.0
12,0.0
13,0.0
14,9.564398366132404
15,-2.1980631876765566
16,7.15363209593022
17,-0.3202748713636083
18,9.927753778027882
2,1, 1, 1, 0,22,45.00,60.00,Tuesday
7,-1.1
8,0.0
9,0.0
10,0.0
11,0.0
12,0.0
13,0.0
14,9.547234959704156
15,-1.9267532572964379
16,7.144845642722487
17,-0.29322220551421199
18,9.901843514343
2,1, 1, 1, 0,23, 0.00,15.00,Tuesday
7,-1.25
8,0.0
9,0.0
10,0.0
11,0.0
12,0.0
13,0.0
14,9.488840754117238
15,-2.2299604122384459
16,7.0417009715783369
17,-0.5616786176017854
18,9.870305474369529
2,1, 1, 1, 0,23,15.00,30.00,Tuesday
7,-1.4
8,0.0
9,0.0
10,0.0
11,0.0
12,0.0
13,0.0
14,9.432652016715622
15,-2.534703370181748
16,6.930050151291653
17,-0.8491858963218419
18,9.828419958091783
2,1, 1, 1, 0,23,30.00,45.00,Tuesday
7,-1.5499999999999999
8,0.0
9,0.0
10,0.0
11,0.0
12,0.0
13,0.0
14,9.371505968978369
15,-2.8400985350363365
16,6.816498791142749
17,-1.138161414580054
18,9.777751265729263
2,1, 1, 1, 0,23,45.00,60.00,Tuesday
7,-1.7
8,0.0
9,0.0
10,0.0
11,0.0
12,0.0
13,0.0
14,9.306459089888035
15,-3.1458377743777987
16,6.698811024530187
17,-1.4288963626141822
18,9.721463298615367
2,1, 1, 1, 0,24, 0.00,15.00,Tuesday
7,-1.7
8,0.0
9,0.0
10,0.0
11,0.0
12,0.0
13,0.0
14,9.256869599278538
15,-3.200185907042216
16,6.639788014606154
17,-1.4957597649488435
18,9.66522002249619
2,1, 1, 1, 0,24,15.00,30.00,Tuesday
7,-1.7
8,0.0
9,0.0
10,0.0
11,0.0
12,0.0
13,0.0
14,9.205347039422238
15,-3.2550487857826688
16,6.584777649347188
17,-1.5595808485410317
18,9.6118445773931
2,1, 1, 1, 0,24,30.00,45.00,Tuesday
7,-1.7
8,0.0
9,0.0
10,0.0
11,0.0
12,0.0
13,0.0
14,9.155086758155809
15,-3.309804167973702
16,6.529656201706871
17,-1.6235306922708333
18,9.561104772742003
2,1, 1, 1, 0,24,45.00,60.00,Tuesday
7,-1.7
8,0.0
9,0.0
10,0.0
11,0.0
12,0.0
13,0.0
14,9.105718971906999
15,-3.364564571634059
16,6.475457724338753
17,-1.687463202621018
18,9.511849846954077
End of Data
 Number of Records Written=        1152
