Program Version,EnergyPlus, Version 9.5.0-de239b2e5f, YMD=2023.02.17 15:25
1,5,Environment Title[],Latitude[deg],Longitude[deg],Time Zone[],Elevation[m]
2,8,Day of Simulation[],Month[],Day of Month[],DST Indicator[1=yes 0=no],Hour[],StartMinute[],EndMinute[],DayType
3,5,Cumulative Day of Simulation[],Month[],Day of Month[],DST Indicator[1=yes 0=no],DayType  ! When Daily Report Variables Requested
4,2,Cumulative Days of Simulation[],Month[]  ! When Monthly Report Variables Requested
5,1,Cumulative Days of Simulation[] ! When Run Period Report Variables Requested
6,1,Calendar Year of Simulation[] ! When Annual Report Variables Requested
7,1,Environment,Site Outdoor Air Drybulb Temperature [C] !TimeStep
8,1,ZONE ONE,Zone Windows Total Transmitted Solar Radiation Rate [W] !TimeStep
9,1,ZN001:WALL001,Surface Outside Face Sunlit Fraction [] !TimeStep
10,1,ZN001:WALL001,Surface Outside Face Incident Solar Radiation Rate per Area [W/m2] !TimeStep
11,1,ZN001:WALL001:WIN001,Surface Outside Face Sunlit Fraction [] !TimeStep
12,1,ZN001:WALL001:WIN001,Surface Outside Face Incident Solar Radiation Rate per Area [W/m2] !TimeStep
13,1,ZN001:WALL001:WIN001,Surface Window Transmitted Solar Radiation Rate [W] !TimeStep
14,1,ZN001:WALL001,Surface Inside Face Temperature [C] !TimeStep
15,1,ZN001:WALL001,Surface Outside Face Temperature [C] !TimeStep
16,1,ZN001:WALL001:WIN001,Surface Inside Face Temperature [C] !TimeStep
17,1,ZN001:WALL001:WIN001,Surface Outside Face Temperature [C] !TimeStep
18,1,ZONE ONE,Zone Mean Air Temperature [C] !TimeStep
End of Data Dictionary
1,RUN PERIOD 1,  41.98, -87.92,  -6.00, 201.00
2,1, 1, 1, 0, 1, 0.00,15.00,Tuesday
7,-4.324999999999999
8,0.0
9,0.0
10,0.0
11,0.0
12,0.0
13,0.0
14,7.949209049413169
15,-5.859265831647161
16,4.151939537325859
17,-3.170525230319413
18,8.441313821872175
2,1, 1, 1, 0, 1,15.00,30.00,Tuesday
7,-6.949999999999999
8,0.0
9,0.0
10,0.0
11,0.0
12,0.0
13,0.0
14,7.756944984429898
15,-8.326435355398836
16,3.3735625085281528
17,-5.120613700665899
18,8.327380463025096
2,1, 1, 1, 0, 1,30.00,45.00,Tuesday
7,-9.575
8,0.0
9,0.0
10,0.0
11,0.0
12,0.0
13,0.0
14,7.542562957053081
15,-10.801631883388227
16,2.587642068569039
17,-7.0766226188927139
18,8.17951094133528
2,1, 1, 1, 0, 1,45.00,60.00,Tuesday
7,-12.2
8,0.0
9,0.0
10,0.0
11,0.0
12,0.0
13,0.0
14,7.31101752589811
15,-13.283477601224967
16,1.7863816449144566
17,-9.040691974101719
18,8.008703422502356
2,1, 1, 1, 0, 2, 0.00,15.00,Tuesday
7,-12.075
8,0.0
9,0.0
10,0.0
11,0.0
12,0.0
13,0.0
14,7.228605313096678
15,-13.084320291358294
16,1.7397270589108303
17,-8.896443010388339
18,7.856028847547692
2,1, 1, 1, 0, 2,15.00,30.00,Tuesday
7,-11.95
8,0.0
9,0.0
10,0.0
11,0.0
12,0.0
13,0.0
14,7.133674738811566
15,-12.907495508149108
16,1.717134994910566
17,-8.783555153426392
18,7.738931244308673
2,1, 1, 1, 0, 2,30.00,45.00,Tuesday
7,-11.825
8,0.0
9,0.0
10,0.0
11,0.0
12,0.0
13,0.0
14,7.057521924134399
15,-12.729464933962266
16,1.6929495372648376
17,-8.649549047306494
18,7.650297608593184
2,1, 1, 1, 0, 2,45.00,60.00,Tuesday
7,-11.7
8,0.0
9,0.0
10,0.0
11,0.0
12,0.0
13,0.0
14,6.993427340681973
15,-12.551532599107537
16,1.68986193254284
17,-8.530680279001672
18,7.577752933851193
2,1, 1, 1, 0, 3, 0.00,15.00,Tuesday
7,-11.549999999999999
8,0.0
9,0.0
10,0.0
11,0.0
12,0.0
13,0.0
14,6.9313412896733
15,-12.424427067177629
16,1.694072103761414
17,-8.371237385417885
18,7.511776270608069
2,1, 1, 1, 0, 3,15.00,30.00,Tuesday
7,-11.399999999999999
8,0.0
9,0.0
10,0.0
11,0.0
12,0.0
13,0.0
14,6.8725791297282969
15,-12.29864981865937
16,1.7080256574869282
17,-8.230706872152269
18,7.448038017306296
2,1, 1, 1, 0, 3,30.00,45.00,Tuesday
7,-11.25
8,0.0
9,0.0
10,0.0
11,0.0
12,0.0
13,0.0
14,6.814623503982422
15,-12.174338465486592
16,1.7150487277197045
17,-8.07005909814734
18,7.385270145290197
2,1, 1, 1, 0, 3,45.00,60.00,Tuesday
7,-11.1
8,0.0
9,0.0
10,0.0
11,0.0
12,0.0
13,0.0
14,6.757380539143853
15,-12.051553398777994
16,1.7312959314975843
17,-7.928842291473643
18,7.323468694063338
2,1, 1, 1, 0, 4, 0.00,15.00,Tuesday
7,-11.1
8,0.0
9,0.0
10,0.0
11,0.0
12,0.0
13,0.0
14,6.695892738327053
15,-12.024799735869769
16,1.6578341256606564
17,-7.981505417305186
18,7.261163782917955
2,1, 1, 1, 0, 4,15.00,30.00,Tuesday
7,-11.1
8,0.0
9,0.0
10,0.0
11,0.0
12,0.0
13,0.0
14,6.634774846019795
15,-11.999087239687779
16,1.593007345790113
17,-8.040457494571968
18,7.197866928409906
2,1, 1, 1, 0, 4,30.00,45.00,Tuesday
7,-11.1
8,0.0
9,0.0
10,0.0
11,0.0
12,0.0
13,0.0
14,6.57325240653513
15,-11.974833331929485
16,1.5293838353953789
17,-8.099189693776907
18,7.133889881520345
2,1, 1, 1, 0, 4,45.00,60.00,Tuesday
7,-11.1
8,0.0
9,0.0
10,0.0
11,0.0
12,0.0
13,0.0
14,6.51153312378037
15,-11.951904064233787
16,1.4661206130219853
17,-8.156782946178283
18,7.0696663181981569
2,1, 1, 1, 0, 5, 0.00,15.00,Tuesday
7,-10.975
8,0.0
9,0.0
10,0.0
11,0.0
12,0.0
13,0.0
14,6.455655422748038
15,-11.830185415256914
16,1.459252177013468
17,-8.083619921375544
18,7.006846721086443
2,1, 1, 1, 0, 5,15.00,30.00,Tuesday
7,-10.85
8,0.0
9,0.0
10,0.0
11,0.0
12,0.0
13,0.0
14,6.400109602018406
15,-11.70851770380811
16,1.4487389226385404
17,-8.002455774064856
18,6.946022410802402
2,1, 1, 1, 0, 5,30.00,45.00,Tuesday
7,-10.725
8,0.0
9,0.0
10,0.0
11,0.0
12,0.0
13,0.0
14,6.345806115941028
15,-11.586822010324349
16,1.43835082861699
17,-7.920141859124442
18,6.886856568923864
2,1, 1, 1, 0, 5,45.00,60.00,Tuesday
7,-10.6
8,0.0
9,0.0
10,0.0
11,0.0
12,0.0
13,0.0
14,6.292514389706911
15,-11.465134614598611
16,1.4288190910382355
17,-7.837429927429355
18,6.828848371874983
2,1, 1, 1, 0, 6, 0.00,15.00,Tuesday
7,-10.6
8,0.0
9,0.0
10,0.0
11,0.0
12,0.0
13,0.0
14,6.232325075361476
15,-11.466293853994154
16,1.3809612908373197
17,-7.844756313121366
18,6.770170211993444
2,1, 1, 1, 0, 6,15.00,30.00,Tuesday
7,-10.6
8,0.0
9,0.0
10,0.0
11,0.0
12,0.0
13,0.0
14,6.172795008224786
15,-11.467411987150996
16,1.3349866325921767
17,-7.857864254712069
18,6.7100709342083839
2,1, 1, 1, 0, 6,30.00,45.00,Tuesday
7,-10.6
8,0.0
9,0.0
10,0.0
11,0.0
12,0.0
13,0.0
14,6.11270753204559
15,-11.468573227715268
16,1.2893209083392777
17,-7.871620021422586
18,6.6488990864076629
2,1, 1, 1, 0, 6,45.00,60.00,Tuesday
7,-10.6
8,0.0
9,0.0
10,0.0
11,0.0
12,0.0
13,0.0
14,6.052324481652476
15,-11.469730952019742
16,1.2433413658953896
17,-7.8855802910918559
18,6.587236209665578
2,1, 1, 1, 0, 7, 0.00,15.00,Tuesday
7,-10.6
8,0.0
9,0.0
10,0.0
11,0.0
12,0.0
13,0.0
14,5.993743771230609
15,-11.447568108292762
16,1.1813953504603774
17,-7.93597521223694
18,6.5256308727956588
2,1, 1, 1, 0, 7,15.00,30.00,Tuesday
7,-10.6
8,0.0
9,0.0
10,0.0
11,0.0
12,0.0
13,0.0
14,5.935054308603808
15,-11.426559230723962
16,1.122242526325124
17,-7.986948744389338
18,6.464395570212116
2,1, 1, 1, 0, 7,30.00,45.00,Tuesday
7,-10.6
8,0.0
9,0.0
10,0.0
11,0.0
12,0.0
13,0.0
14,5.8766254445624519
15,-11.406622660034778
16,1.0638664570815877
17,-8.03691743785049
18,6.403555251153786
2,1, 1, 1, 0, 7,45.00,60.00,Tuesday
7,-10.6
8,0.0
9,0.0
10,0.0
11,0.0
12,0.0
13,0.0
14,5.818481737349112
15,-11.3876936464055
16,1.0061922809786666
17,-8.085602476536394
18,6.34304904617791
2,1, 1, 1, 0, 8, 0.00,15.00,Tuesday
7,-10.45
8,0.0
9,0.0
10,0.0
11,0.0
12,0.0
13,0.0
14,5.760190345189559
15,-11.33790008683293
16,0.9956742414171913
17,-8.026435007920498
18,6.28293762768817
2,1, 1, 1, 0, 8,15.00,30.00,Tuesday
7,-10.3
8,215.5879980222353
9,1.0
10,22.819555959623899
11,1.0
12,22.819555959623899
13,215.5879980222353
14,5.834527399282659
15,-9.663771867967736
16,1.27342868983078
17,-7.700673902255517
18,6.244090099795622
2,1, 1, 1, 0, 8,30.00,45.00,Tuesday
7,-10.15
8,1058.5392312119832
9,1.0
10,109.75755355442667
11,1.0
12,109.75755355442667
13,1058.5392312119832
14,6.273000859721586
15,-3.287653465309905
16,2.429723200212038
17,-6.643687720222317
18,6.284808633540364
2,1, 1, 1, 0, 8,45.00,60.00,Tuesday
7,-10.0
8,1924.8399544048012
9,1.0
10,195.8764694434918
11,1.0
12,195.8764694434918
13,1924.8399544048012
14,6.85823833577459
15,3.208379430372767
16,3.6782303278752126
17,-5.5714561834010969
18,6.411551195540005
2,1, 1, 1, 0, 9, 0.00,15.00,Tuesday
7,-9.725
8,2788.1568045040946
9,1.0
10,278.97248314719988
11,1.0
12,278.97248314719988
13,2788.1568045040946
14,7.295890861203141
15,8.361718860111014
16,4.905010722914767
17,-4.637243006514268
18,6.601004583422352
2,1, 1, 1, 0, 9,15.00,30.00,Tuesday
7,-9.45
8,3698.191694964431
9,1.0
10,364.91995730569456
11,1.0
12,364.91995730569456
13,3698.191694964431
14,7.787319478601683
15,13.442961198013926
16,6.224088375177416
17,-3.680627054232559
18,6.8440306682133829
2,1, 1, 1, 0, 9,30.00,45.00,Tuesday
7,-9.175
8,4300.2673206835229
9,1.0
10,420.35879993239237
11,1.0
12,420.35879993239237
13,4300.2673206835229
14,8.147206383754276
15,16.19911426490703
16,7.176220965793618
17,-3.0587578624630398
18,7.113456083566589
2,1, 1, 1, 0, 9,45.00,60.00,Tuesday
7,-8.9
8,4925.271017558337
9,1.0
10,478.00138373643099
11,1.0
12,478.00138373643099
13,4925.271017558337
14,8.564566885225446
15,19.193668359775388
16,8.10317765085938
17,-2.4364478931054238
18,7.396223635011213
2,1, 1, 1, 0,10, 0.00,15.00,Tuesday
7,-8.350000000000002
8,5563.47927965646
9,1.0
10,536.9185644770597
11,1.0
12,536.9185644770597
13,5563.47927965646
14,8.931523722839986
15,20.308235407483484
16,9.033513103337157
17,-1.8158995696968532
18,7.6931576363923759
2,1, 1, 1, 0,10,15.00,30.00,Tuesday
7,-7.800000000000001
8,6223.735720388039
9,1.0
10,598.0969199229219
11,1.0
12,598.0969199229219
13,6223.735720388039
14,9.330362196973839
15,21.55896945530131
16,9.976785891407645
17,-1.191670564776416
18,7.8334624828750949
2,1, 1, 1, 0,10,30.00,45.00,Tuesday
7,-7.25
8,6656.871608685562
9,1.0
10,637.6133352894237
11,1.0
12,637.6133352894237
13,6656.871608685562
14,9.603665528028384
15,21.615317828286714
16,10.64673439974706
17,-0.7610336812044807
18,8.104574004917657
2,1, 1, 1, 0,10,45.00,60.00,Tuesday
7,-6.7
8,7083.627635407371
9,1.0
10,676.6412284283772
11,1.0
12,676.6412284283772
13,7083.627635407371
14,9.869035615201016
15,21.772632736219437
16,11.2641938723296
17,-0.33624740164276548
18,8.306060432849879
2,1, 1, 1, 0,11, 0.00,15.00,Tuesday
7,-6.275
8,7502.619881932496
9,1.0
10,715.0112779846514
11,1.0
12,715.0112779846514
13,7502.619881932496
14,10.289278151989337
15,23.872330112193077
16,11.98808454019138
17,0.32854572420706065
18,8.769995014089437
2,1, 1, 1, 0,11,15.00,30.00,Tuesday
7,-5.85
8,7911.749570952164
9,1.0
10,752.5077794605232
11,1.0
12,752.5077794605232
13,7911.749570952164
14,10.762522491015199
15,25.809677299097716
16,12.751106289869995
17,1.003320960583551
18,9.203509142203329
2,1, 1, 1, 0,11,30.00,45.00,Tuesday
7,-5.425
8,7790.156876744835
9,1.0
10,742.5988714321785
11,1.0
12,742.5988714321785
13,7790.156876744835
14,11.053496348576453
15,25.66176408322711
16,13.011876957406571
17,1.3257533663436334
18,9.608626502524127
2,1, 1, 1, 0,11,45.00,60.00,Tuesday
7,-5.0
8,7616.415097398768
9,1.0
10,727.8169025450712
11,1.0
12,727.8169025450712
13,7616.415097398768
14,11.331800958885534
15,25.433701010593528
16,13.182101265815846
17,1.600936018484333
18,9.96833841691361
2,1, 1, 1, 0,12, 0.00,15.00,Tuesday
7,-4.575
8,7317.63187899619
9,1.0
10,700.3759009170325
11,1.0
12,700.3759009170325
13,7317.63187899619
14,11.532460501925378
15,24.691884704708504
16,13.213871082036463
17,1.8181467606704019
18,10.278322183568978
2,1, 1, 1, 0,12,15.00,30.00,Tuesday
7,-4.15
8,7096.045470548525
9,1.0
10,681.6705029034473
11,1.0
12,681.6705029034473
13,7096.045470548525
14,11.753265778855193
15,24.362261314789234
16,13.314751403443893
17,2.099674381226464
18,10.551168441825049
2,1, 1, 1, 0,12,30.00,45.00,Tuesday
7,-3.7249999999999998
8,6229.736928425406
9,1.0
10,602.01865277251
11,1.0
12,602.01865277251
13,6229.736928425406
14,11.666905090140555
15,21.33359356051242
16,12.734970752356617
17,1.9259336632600253
18,10.761864842663315
2,1, 1, 1, 0,12,45.00,60.00,Tuesday
7,-3.3
8,5087.904404183855
9,1.0
10,493.55004396206007
11,1.0
12,493.55004396206007
13,5087.904404183855
14,11.473423860461418
15,17.156570307604427
16,11.713569555804611
17,1.4992457081659155
18,10.877983552859922
2,1, 1, 1, 0,13, 0.00,15.00,Tuesday
7,-3.0249999999999996
8,4201.063393949559
9,1.0
10,412.335026418112
11,1.0
12,412.335026418112
13,4201.063393949559
14,11.340793575356651
15,14.313359932379284
16,10.877737463825838
17,1.2148847719496985
18,10.919101047737089
2,1, 1, 1, 0,13,15.00,30.00,Tuesday
7,-2.75
8,3076.892122430221
9,1.0
10,305.94037763660148
11,1.0
12,305.94037763660148
13,3076.892122430221
14,11.009773889816085
15,10.141133321510836
16,9.728713298439743
17,0.7238735799616052
18,10.894622595965329
2,1, 1, 1, 0,13,30.00,45.00,Tuesday
7,-2.475
8,2809.0935899127655
9,1.0
10,281.0763483922329
11,1.0
12,281.0763483922329
13,2809.0935899127655
14,10.988194177684067
15,9.630208212361378
16,9.508493037090716
17,0.840626956082815
18,10.847337415351563
2,1, 1, 1, 0,13,45.00,60.00,Tuesday
7,-2.2
8,2546.8736709552365
9,1.0
10,256.7721209415886
11,1.0
12,256.7721209415886
13,2546.8736709552365
14,10.94717511083857
15,9.023588131974263
16,9.361053270511434
17,0.9912694341292081
18,10.806629780697375
2,1, 1, 1, 0,14, 0.00,15.00,Tuesday
7,-1.9250000000000003
8,2080.536760270814
9,1.0
10,210.73276284570657
11,1.0
12,210.73276284570657
13,2080.536760270814
14,10.787299067698385
15,7.4776629759398649
16,8.940979882811462
17,0.9440101755825481
18,10.766566435266054
2,1, 1, 1, 0,14,15.00,30.00,Tuesday
7,-1.6500000000000002
8,1848.1882299855229
9,1.0
10,189.38488290342594
11,1.0
12,189.38488290342594
13,1848.1882299855229
14,10.745099551242389
15,7.07292652740174
16,8.772702842719128
17,1.0824552637899388
18,10.728053428901159
2,1, 1, 1, 0,14,30.00,45.00,Tuesday
7,-1.375
8,1762.648528253172
9,1.0
10,179.3940297802914
11,1.0
12,179.3940297802914
13,1762.648528253172
14,10.729810923424206
15,7.198261284320662
16,8.767780748060205
17,1.3221041167811337
18,10.694302662847836
2,1, 1, 1, 0,14,45.00,60.00,Tuesday
7,-1.1
8,1676.1315823352277
9,1.0
10,169.43349014176136
11,1.0
12,169.43349014176136
13,1676.1315823352277
14,10.71054884014742
15,7.298878419816606
16,8.75630679322552
17,1.5591744298239974
18,10.665273247084015
2,1, 1, 1, 0,15, 0.00,15.00,Tuesday
7,-1.1
8,1764.2336451764168
9,1.0
10,178.15692317953907
11,1.0
12,178.15692317953907
13,1764.2336451764168
14,10.776367264038879
15,8.1179266821288
16,8.874232793419367
17,1.7041588599080342
18,10.64566454920096
2,1, 1, 1, 0,15,15.00,30.00,Tuesday
7,-1.1
8,1657.44905719483
9,1.0
10,166.40516310952945
11,1.0
12,166.40516310952945
13,1657.44905719483
14,10.716573666882912
15,7.756589340659131
16,8.768140889545748
17,1.6727794351698436
18,10.628229027579993
2,1, 1, 1, 0,15,30.00,45.00,Tuesday
7,-1.1
8,1397.5312645024297
9,1.0
10,140.8967369711617
11,1.0
12,140.8967369711617
13,1397.5312645024297
14,10.585208280596558
15,6.551713217040003
16,8.454153775906434
17,1.4899165497845389
18,10.60135237964815
2,1, 1, 1, 0,15,45.00,60.00,Tuesday
7,-1.1
8,1150.0543343484979
9,1.0
10,116.57355796743004
11,1.0
12,116.57355796743004
13,1150.0543343484979
14,10.441190341295553
15,5.341845097524195
16,8.135123029952752
17,1.3005755169279497
18,10.558997807621092
2,1, 1, 1, 0,16, 0.00,15.00,Tuesday
7,-1.1
8,912.7487358563033
9,1.0
10,93.14939272689483
11,1.0
12,93.14939272689483
13,912.7487358563033
14,10.324801531893196
15,4.298109683019268
16,7.85955971217038
17,1.2013248208423307
18,10.498894127240574
2,1, 1, 1, 0,16,15.00,30.00,Tuesday
7,-1.1
8,566.636069103818
9,1.0
10,57.94047897402063
11,1.0
12,57.94047897402063
13,566.636069103818
14,10.106738593330503
15,2.177544921441201
16,7.42377066367942
17,0.9677334851417072
18,10.412860283002495
2,1, 1, 1, 0,16,30.00,45.00,Tuesday
7,-1.1
8,439.3280485110057
9,1.0
10,45.38251793443488
11,1.0
12,45.38251793443488
13,439.3280485110057
14,10.022031299449779
15,1.5727323542869403
16,7.243349417936997
17,0.9636443163329318
18,10.314463865354089
2,1, 1, 1, 0,16,45.00,60.00,Tuesday
7,-1.1
8,306.6800834820858
9,1.0
10,32.02625108222755
11,1.0
12,32.02625108222755
13,306.6800834820858
14,9.894638946640385
15,0.7151657835631519
16,7.07849821392233
17,0.9599257825860832
18,10.216695113741129
2,1, 1, 1, 0,17, 0.00,15.00,Tuesday
7,-1.1
8,168.21359625367695
9,1.0
10,17.762198626050539
11,1.0
12,17.762198626050539
13,168.21359625367695
14,9.742423621548012
15,-0.5281266860557399
16,6.852613845968676
17,0.8524611939656097
18,10.118018920842554
2,1, 1, 1, 0,17,15.00,30.00,Tuesday
7,-1.1
8,0.0
9,0.0
10,0.0
11,0.0
12,0.0
13,0.0
14,9.537968877643394
15,-2.361731948961099
16,6.530452927771364
17,0.5943884814353169
18,10.004867439165404
2,1, 1, 1, 0,17,30.00,45.00,Tuesday
7,-1.1
8,0.0
9,0.0
10,0.0
11,0.0
12,0.0
13,0.0
14,9.474148028335778
15,-2.493685389515346
16,6.4712167535801659
17,0.6523069065043501
18,9.89401158738023
2,1, 1, 1, 0,17,45.00,60.00,Tuesday
7,-1.1
8,0.0
9,0.0
10,0.0
11,0.0
12,0.0
13,0.0
14,9.393001473494131
15,-2.6781650636157496
16,6.445395786783763
17,0.7226562898201792
18,9.800537136817587
2,1, 1, 1, 0,18, 0.00,15.00,Tuesday
7,-1.25
8,0.0
9,0.0
10,0.0
11,0.0
12,0.0
13,0.0
14,9.32317262232344
15,-2.826895508071467
16,6.338268314972879
17,0.5887997286885138
18,9.724307067726688
2,1, 1, 1, 0,18,15.00,30.00,Tuesday
7,-1.4
8,0.0
9,0.0
10,0.0
11,0.0
12,0.0
13,0.0
14,9.25895202494193
15,-2.979446341410419
16,6.248373772971377
17,0.4612853057109305
18,9.65930278731594
2,1, 1, 1, 0,18,30.00,45.00,Tuesday
7,-1.5499999999999999
8,0.0
9,0.0
10,0.0
11,0.0
12,0.0
13,0.0
14,9.198760819407405
15,-3.1316443773291144
16,6.163092470692504
17,0.3346431756901893
18,9.599948641795264
2,1, 1, 1, 0,18,45.00,60.00,Tuesday
7,-1.7
8,0.0
9,0.0
10,0.0
11,0.0
12,0.0
13,0.0
14,9.14031380781341
15,-3.284014316875683
16,6.080405177124476
17,0.20876981107960547
18,9.543018212439297
2,1, 1, 1, 0,19, 0.00,15.00,Tuesday
7,-1.825
8,0.0
9,0.0
10,0.0
11,0.0
12,0.0
13,0.0
14,9.10404811586462
15,-3.1469856613145388
16,5.954495298582287
17,-0.01981327050299342
18,9.48997008402574
2,1, 1, 1, 0,19,15.00,30.00,Tuesday
7,-1.9500000000000002
8,0.0
9,0.0
10,0.0
11,0.0
12,0.0
13,0.0
14,9.067205015379927
15,-3.090015910388625
16,5.845752637053806
17,-0.23656446984784908
18,9.442610074277188
2,1, 1, 1, 0,19,30.00,45.00,Tuesday
7,-2.075
8,0.0
9,0.0
10,0.0
11,0.0
12,0.0
13,0.0
14,9.026188513351972
15,-3.1665874400977844
16,5.77594162464527
17,-0.37056377123207087
18,9.400117055657877
2,1, 1, 1, 0,19,45.00,60.00,Tuesday
7,-2.2
8,0.0
9,0.0
10,0.0
11,0.0
12,0.0
13,0.0
14,8.987358201334214
15,-3.1529515427851115
16,5.67019099007689
17,-0.5774397939269989
18,9.359396046066957
2,1, 1, 1, 0,20, 0.00,15.00,Tuesday
7,-1.9250000000000003
8,0.0
9,0.0
10,0.0
11,0.0
12,0.0
13,0.0
14,8.96615176386379
15,-2.853951817086701
16,5.726077981566846
17,-0.4183571330283371
18,9.322045174317499
2,1, 1, 1, 0,20,15.00,30.00,Tuesday
7,-1.6500000000000002
8,0.0
9,0.0
10,0.0
11,0.0
12,0.0
13,0.0
14,8.94435928286268
15,-2.557758416615176
16,5.766727971352452
17,-0.22932327919130558
18,9.288744236818888
2,1, 1, 1, 0,20,30.00,45.00,Tuesday
7,-1.375
8,0.0
9,0.0
10,0.0
11,0.0
12,0.0
13,0.0
14,8.924873879382974
15,-2.2627011572952715
16,5.812961811020045
17,-0.04486357927453355
18,9.25883483462015
2,1, 1, 1, 0,20,45.00,60.00,Tuesday
7,-1.1
8,0.0
9,0.0
10,0.0
11,0.0
12,0.0
13,0.0
14,8.907213704169966
15,-1.9688202079729316
16,5.862128895780927
17,0.14245690426696457
18,9.23136108169786
2,1, 1, 1, 0,21, 0.00,15.00,Tuesday
7,-1.25
8,0.0
9,0.0
10,0.0
11,0.0
12,0.0
13,0.0
14,8.85060307288791
15,-2.241363491621852
16,5.841981861671684
17,0.13869030525518157
18,9.199547338557118
2,1, 1, 1, 0,21,15.00,30.00,Tuesday
7,-1.4
8,0.0
9,0.0
10,0.0
11,0.0
12,0.0
13,0.0
14,8.794677988697618
15,-2.453347977932615
16,5.7870676863774979
17,0.08464363113108675
18,9.158505895957508
2,1, 1, 1, 0,21,30.00,45.00,Tuesday
7,-1.5499999999999999
8,0.0
9,0.0
10,0.0
11,0.0
12,0.0
13,0.0
14,8.726387218774676
15,-2.7862126273064136
16,5.767358449001108
17,0.09437344736204523
18,9.107946250684608
2,1, 1, 1, 0,21,45.00,60.00,Tuesday
7,-1.7
8,0.0
9,0.0
10,0.0
11,0.0
12,0.0
13,0.0
14,8.652880920833777
15,-3.2248697565692194
16,5.743654878494681
17,0.14439432538290476
18,9.050334936392652
2,1, 1, 1, 0,22, 0.00,15.00,Tuesday
7,-1.5499999999999999
8,0.0
9,0.0
10,0.0
11,0.0
12,0.0
13,0.0
14,8.64321185176819
15,-2.75294663681506
16,5.672217998970098
17,0.07712794838528225
18,8.998042943641679
2,1, 1, 1, 0,22,15.00,30.00,Tuesday
7,-1.4
8,0.0
9,0.0
10,0.0
11,0.0
12,0.0
13,0.0
14,8.624016689030152
15,-2.4334445100992765
16,5.642491434174019
17,0.050327577322264008
18,8.957831512604404
2,1, 1, 1, 0,22,30.00,45.00,Tuesday
7,-1.25
8,0.0
9,0.0
10,0.0
11,0.0
12,0.0
13,0.0
14,8.604379944075142
15,-2.2181580577732316
16,5.645030358853774
17,0.09606737846672786
18,8.927712291506565
2,1, 1, 1, 0,22,45.00,60.00,Tuesday
7,-1.1
8,0.0
9,0.0
10,0.0
11,0.0
12,0.0
13,0.0
14,8.588288805591203
15,-1.9441487317579265
16,5.628709694975157
17,0.09622859133673956
18,8.902484550927099
2,1, 1, 1, 0,23, 0.00,15.00,Tuesday
7,-1.25
8,0.0
9,0.0
10,0.0
11,0.0
12,0.0
13,0.0
14,8.529938637477225
15,-2.2474618219107769
16,5.5074020102264289
17,-0.1631708863744734
18,8.871459914922492
2,1, 1, 1, 0,23,15.00,30.00,Tuesday
7,-1.4
8,0.0
9,0.0
10,0.0
11,0.0
12,0.0
13,0.0
14,8.473791346175466
15,-2.5522247631955388
16,5.378052795263386
17,-0.43472135094452826
18,8.829819851186058
2,1, 1, 1, 0,23,30.00,45.00,Tuesday
7,-1.5499999999999999
8,0.0
9,0.0
10,0.0
11,0.0
12,0.0
13,0.0
14,8.412626048231074
15,-2.8576436688711186
16,5.2467854915115599
17,-0.7075238931653871
18,8.779136230179136
2,1, 1, 1, 0,23,45.00,60.00,Tuesday
7,-1.7
8,0.0
9,0.0
10,0.0
11,0.0
12,0.0
13,0.0
14,8.347474992062058
15,-3.163406053558841
16,5.111589351447265
17,-0.9820812432346315
18,8.722635464641718
2,1, 1, 1, 0,24, 0.00,15.00,Tuesday
7,-1.7
8,0.0
9,0.0
10,0.0
11,0.0
12,0.0
13,0.0
14,8.29824406781581
15,-3.217724030202432
16,5.05364586805274
17,-1.0472988762292062
18,8.666295472864447
2,1, 1, 1, 0,24,15.00,30.00,Tuesday
7,-1.7
8,0.0
9,0.0
10,0.0
11,0.0
12,0.0
13,0.0
14,8.247065246744379
15,-3.2725820787921937
16,4.998143878056965
17,-1.1094529335456969
18,8.613049395349242
2,1, 1, 1, 0,24,30.00,45.00,Tuesday
7,-1.7
8,0.0
9,0.0
10,0.0
11,0.0
12,0.0
13,0.0
14,8.197221574300482
15,-3.327328700550534
16,4.942569260604444
17,-1.1715792149346954
18,8.562625677240192
2,1, 1, 1, 0,24,45.00,60.00,Tuesday
7,-1.7
8,0.0
9,0.0
10,0.0
11,0.0
12,0.0
13,0.0
14,8.14832403262958
15,-3.3820799543656494
16,4.887927364267057
17,-1.233467845717314
18,8.51379664108037
End of Data
 Number of Records Written=        1152
