Program Version,EnergyPlus, Version 9.5.0-de239b2e5f, YMD=2023.02.17 15:26
1,5,Environment Title[],Latitude[deg],Longitude[deg],Time Zone[],Elevation[m]
2,8,Day of Simulation[],Month[],Day of Month[],DST Indicator[1=yes 0=no],Hour[],StartMinute[],EndMinute[],DayType
3,5,Cumulative Day of Simulation[],Month[],Day of Month[],DST Indicator[1=yes 0=no],DayType  ! When Daily Report Variables Requested
4,2,Cumulative Days of Simulation[],Month[]  ! When Monthly Report Variables Requested
5,1,Cumulative Days of Simulation[] ! When Run Period Report Variables Requested
6,1,Calendar Year of Simulation[] ! When Annual Report Variables Requested
7,1,Environment,Site Outdoor Air Drybulb Temperature [C] !TimeStep
8,1,ZONE ONE,Zone Windows Total Transmitted Solar Radiation Rate [W] !TimeStep
9,1,ZN001:WALL001,Surface Outside Face Sunlit Fraction [] !TimeStep
10,1,ZN001:WALL001,Surface Outside Face Incident Solar Radiation Rate per Area [W/m2] !TimeStep
11,1,ZN001:WALL001:WIN001,Surface Outside Face Sunlit Fraction [] !TimeStep
12,1,ZN001:WALL001:WIN001,Surface Outside Face Incident Solar Radiation Rate per Area [W/m2] !TimeStep
13,1,ZN001:WALL001:WIN001,Surface Window Transmitted Solar Radiation Rate [W] !TimeStep
14,1,ZN001:WALL001,Surface Inside Face Temperature [C] !TimeStep
15,1,ZN001:WALL001,Surface Outside Face Temperature [C] !TimeStep
16,1,ZN001:WALL001:WIN001,Surface Inside Face Temperature [C] !TimeStep
17,1,ZN001:WALL001:WIN001,Surface Outside Face Temperature [C] !TimeStep
18,1,ZONE ONE,Zone Mean Air Temperature [C] !TimeStep
End of Data Dictionary
1,RUN PERIOD 1,  41.98, -87.92,  -6.00, 201.00
2,1, 1, 1, 0, 1, 0.00,15.00,Tuesday
7,-4.324999999999999
8,0.0
9,0.0
10,0.0
11,0.0
12,0.0
13,0.0
14,6.706128362899002
15,-5.881882036451055
16,2.8099876454392644
17,-3.1507846791249678
18,7.163103876893097
2,1, 1, 1, 0, 1,15.00,30.00,Tuesday
7,-6.949999999999999
8,0.0
9,0.0
10,0.0
11,0.0
12,0.0
13,0.0
14,6.513906881142697
15,-8.349305785944266
16,1.9593124055090812
17,-5.048485252308922
18,7.0499975062399209
2,1, 1, 1, 0, 1,30.00,45.00,Tuesday
7,-9.575
8,0.0
9,0.0
10,0.0
11,0.0
12,0.0
13,0.0
14,6.298946518047666
15,-10.82482710146544
16,1.1015199357954658
17,-6.952216939768903
18,6.901552926192032
2,1, 1, 1, 0, 1,45.00,60.00,Tuesday
7,-12.2
8,0.0
9,0.0
10,0.0
11,0.0
12,0.0
13,0.0
14,6.066265475273774
15,-13.306989814562107
16,0.22866800704389335
17,-8.864488271279868
18,6.729111727758479
2,1, 1, 1, 0, 2, 0.00,15.00,Tuesday
7,-12.075
8,0.0
9,0.0
10,0.0
11,0.0
12,0.0
13,0.0
14,5.985278181486674
15,-13.108058460954093
16,0.19550263137500679
17,-8.730100493515579
18,6.575390621965182
2,1, 1, 1, 0, 2,15.00,30.00,Tuesday
7,-11.95
8,0.0
9,0.0
10,0.0
11,0.0
12,0.0
13,0.0
14,5.8916243667527639
15,-12.931192214674443
16,0.18224505048681295
17,-8.623296927312083
18,6.458489025388926
2,1, 1, 1, 0, 2,30.00,45.00,Tuesday
7,-11.825
8,0.0
9,0.0
10,0.0
11,0.0
12,0.0
13,0.0
14,5.817413592902231
15,-12.753086130511008
16,0.1725073829781536
17,-8.506268618101104
18,6.371261954308118
2,1, 1, 1, 0, 2,45.00,60.00,Tuesday
7,-11.7
8,0.0
9,0.0
10,0.0
11,0.0
12,0.0
13,0.0
14,5.755597332681374
15,-12.575071238132486
16,0.17485763576007685
17,-8.383574912289589
18,6.300823246371394
2,1, 1, 1, 0, 3, 0.00,15.00,Tuesday
7,-11.549999999999999
8,0.0
9,0.0
10,0.0
11,0.0
12,0.0
13,0.0
14,5.696094128395537
15,-12.448549483555285
16,0.194473257160098
17,-8.2383004666043
18,6.237413630387322
2,1, 1, 1, 0, 3,15.00,30.00,Tuesday
7,-11.399999999999999
8,0.0
9,0.0
10,0.0
11,0.0
12,0.0
13,0.0
14,5.639961334255498
15,-12.323379233548215
16,0.21538170596346618
17,-8.091718286053606
18,6.176420811216069
2,1, 1, 1, 0, 3,30.00,45.00,Tuesday
7,-11.25
8,0.0
9,0.0
10,0.0
11,0.0
12,0.0
13,0.0
14,5.584833228071261
15,-12.199710028723088
16,0.23781550473972858
17,-7.944745386454372
18,6.11656331335005
2,1, 1, 1, 0, 3,45.00,60.00,Tuesday
7,-11.1
8,0.0
9,0.0
10,0.0
11,0.0
12,0.0
13,0.0
14,5.5303526553482869
15,-12.077595690740783
16,0.2608524901952478
17,-7.797927298026821
18,6.057699378691734
2,1, 1, 1, 0, 4, 0.00,15.00,Tuesday
7,-11.1
8,0.0
9,0.0
10,0.0
11,0.0
12,0.0
13,0.0
14,5.471591274117593
15,-12.050042961460474
16,0.1876468532537956
17,-7.850974026389281
18,5.998210865977217
2,1, 1, 1, 0, 4,15.00,30.00,Tuesday
7,-11.1
8,0.0
9,0.0
10,0.0
11,0.0
12,0.0
13,0.0
14,5.413148513202949
15,-12.023568189576328
16,0.12405810397723372
17,-7.910731312501412
18,5.93759231156261
2,1, 1, 1, 0, 4,30.00,45.00,Tuesday
7,-11.1
8,0.0
9,0.0
10,0.0
11,0.0
12,0.0
13,0.0
14,5.354241987031795
15,-11.998590806561749
16,0.0618874653249577
17,-7.970530589557313
18,5.876201041034622
2,1, 1, 1, 0, 4,45.00,60.00,Tuesday
7,-11.1
8,0.0
9,0.0
10,0.0
11,0.0
12,0.0
13,0.0
14,5.295096682009406
15,-11.974974211228878
16,0.00013917210549152514
17,-8.0292915824499
18,5.814515057702234
2,1, 1, 1, 0, 5, 0.00,15.00,Tuesday
7,-10.975
8,0.0
9,0.0
10,0.0
11,0.0
12,0.0
13,0.0
14,5.241894241316231
15,-11.853187597180823
16,0.0010736876347436919
17,-7.959349780242974
18,5.754289727966193
2,1, 1, 1, 0, 5,15.00,30.00,Tuesday
7,-10.85
8,0.0
9,0.0
10,0.0
11,0.0
12,0.0
13,0.0
14,5.18904532748278
15,-11.731456500554753
16,-0.0017176088483665808
17,-7.881759766511891
18,5.696156910669323
2,1, 1, 1, 0, 5,30.00,45.00,Tuesday
7,-10.725
8,0.0
9,0.0
10,0.0
11,0.0
12,0.0
13,0.0
14,5.137477280174127
15,-11.609696306869294
16,-0.00445635903179209
17,-7.802942574009762
18,5.639764105299099
2,1, 1, 1, 0, 5,45.00,60.00,Tuesday
7,-10.6
8,0.0
9,0.0
10,0.0
11,0.0
12,0.0
13,0.0
14,5.08695416354773
15,-11.487944108628048
16,-0.006361325921375283
17,-7.723667496116377
18,5.584579766187682
2,1, 1, 1, 0, 6, 0.00,15.00,Tuesday
7,-10.6
8,0.0
9,0.0
10,0.0
11,0.0
12,0.0
13,0.0
14,5.029396951920406
15,-11.489062326284055
16,-0.05046185715877982
17,-7.731968294240232
18,5.528706016257877
2,1, 1, 1, 0, 6,15.00,30.00,Tuesday
7,-10.6
8,0.0
9,0.0
10,0.0
11,0.0
12,0.0
13,0.0
14,4.972496276454482
15,-11.490131021238297
16,-0.09263912249468831
17,-7.74577726108447
18,5.471356709460283
2,1, 1, 1, 0, 6,30.00,45.00,Tuesday
7,-10.6
8,0.0
9,0.0
10,0.0
11,0.0
12,0.0
13,0.0
14,4.915019839873151
15,-11.491243741002212
16,-0.13447744867039547
17,-7.760265276208315
18,5.4128820382944629
2,1, 1, 1, 0, 6,45.00,60.00,Tuesday
7,-10.6
8,0.0
9,0.0
10,0.0
11,0.0
12,0.0
13,0.0
14,4.8572278205268
15,-11.492353265893668
16,-0.1766229090910656
17,-7.7749882389599069
18,5.353879744805683
2,1, 1, 1, 0, 7, 0.00,15.00,Tuesday
7,-10.6
8,0.0
9,0.0
10,0.0
11,0.0
12,0.0
13,0.0
14,4.801255559984685
15,-11.469546871594215
16,-0.23693118623361898
17,-7.826479964675968
18,5.2948841467520399
2,1, 1, 1, 0, 7,15.00,30.00,Tuesday
7,-10.6
8,0.0
9,0.0
10,0.0
11,0.0
12,0.0
13,0.0
14,4.745145917098705
15,-11.447929263921019
16,-0.2943951313650359
17,-7.878485380601205
18,5.236209212194188
2,1, 1, 1, 0, 7,30.00,45.00,Tuesday
7,-10.6
8,0.0
9,0.0
10,0.0
11,0.0
12,0.0
13,0.0
14,4.68926966354872
15,-11.427413703770327
16,-0.351021192179644
17,-7.92952918132471
18,5.177894670586429
2,1, 1, 1, 0, 7,45.00,60.00,Tuesday
7,-10.6
8,0.0
9,0.0
10,0.0
11,0.0
12,0.0
13,0.0
14,4.633659871134661
15,-11.407933522886524
16,-0.4069093292474122
17,-7.9793138430317189
18,5.119894057081914
2,1, 1, 1, 0, 8, 0.00,15.00,Tuesday
7,-10.45
8,0.0
9,0.0
10,0.0
11,0.0
12,0.0
13,0.0
14,4.577899578080236
15,-11.358607447490252
16,-0.40973070167069638
17,-7.92140380995761
18,5.062355173233978
2,1, 1, 1, 0, 8,15.00,30.00,Tuesday
7,-10.3
8,198.49303475921466
9,1.0
10,22.819555959623899
11,1.0
12,22.819555959623899
13,198.49303475921466
14,4.652536345627903
15,-9.684641833390004
16,-0.1061882631639719
17,-7.578441485606845
18,5.025498897861083
2,1, 1, 1, 0, 8,30.00,45.00,Tuesday
7,-10.15
8,974.6027902410967
9,1.0
10,109.75755355442667
11,1.0
12,109.75755355442667
13,974.6027902410967
14,5.085473003106656
15,-3.311267889883741
16,1.128288523762194
17,-6.4459960718713209
18,5.065621951456744
2,1, 1, 1, 0, 8,45.00,60.00,Tuesday
7,-10.0
8,1772.2105473427887
9,1.0
10,195.8764694434918
11,1.0
12,195.8764694434918
13,1772.2105473427887
14,5.656370231602464
15,3.180682497991053
16,2.451246674059348
17,-5.293499971204483
18,5.189032456234128
2,1, 1, 1, 0, 9, 0.00,15.00,Tuesday
7,-9.725
8,2567.07103636241
9,1.0
10,278.97248314719988
11,1.0
12,278.97248314719988
13,2567.07103636241
14,6.079222530549187
15,8.3425022028527
16,3.743801269791618
17,-4.280411027257742
18,5.373966512022196
2,1, 1, 1, 0, 9,15.00,30.00,Tuesday
7,-9.45
8,3404.945077593323
9,1.0
10,364.91995730569456
11,1.0
12,364.91995730569456
13,3404.945077593323
14,6.558367410126851
15,13.423925536354803
16,5.135101616228326
17,-3.238314170268154
18,5.610440174952478
2,1, 1, 1, 0, 9,30.00,45.00,Tuesday
7,-9.175
8,3959.279359646866
9,1.0
10,420.35879993239237
11,1.0
12,420.35879993239237
13,3959.279359646866
14,6.905946142544314
15,16.180902417474696
16,6.120936183765025
17,-2.563273749264795
18,5.871501951663121
2,1, 1, 1, 0, 9,45.00,60.00,Tuesday
7,-8.9
8,4534.723640710659
9,1.0
10,478.00138373643099
11,1.0
12,478.00138373643099
13,4534.723640710659
14,7.309227582874089
15,19.175789752118946
16,7.081341376320495
17,-1.898448644678524
18,6.145016647334787
2,1, 1, 1, 0,10, 0.00,15.00,Tuesday
7,-8.350000000000002
8,5122.325436329882
9,1.0
10,536.9185644770597
11,1.0
12,536.9185644770597
13,5122.325436329882
14,7.660265043442172
15,20.291700937938918
16,8.026605562611167
17,-1.2440878501244015
18,6.431848097479826
2,1, 1, 1, 0,10,15.00,30.00,Tuesday
7,-7.800000000000001
8,5730.227109160092
9,1.0
10,598.0969199229219
11,1.0
12,598.0969199229219
13,5730.227109160092
14,8.041999820989812
15,21.543408871684645
16,8.987556971891593
17,-0.5963153693380718
18,6.566054888420249
2,1, 1, 1, 0,10,30.00,45.00,Tuesday
7,-7.25
8,6129.017662066558
9,1.0
10,637.6133352894237
11,1.0
12,637.6133352894237
13,6129.017662066558
14,8.300467154887708
15,21.60069672995496
16,9.658601568346854
17,-0.1624154124060624
18,6.825512349612447
2,1, 1, 1, 0,10,45.00,60.00,Tuesday
7,-6.7
8,6521.934241945964
9,1.0
10,676.6412284283772
11,1.0
12,676.6412284283772
13,6521.934241945964
14,8.551299647416425
15,21.758786378290535
16,10.281327303541048
17,0.2640327658041315
18,7.01762884385093
2,1, 1, 1, 0,11, 0.00,15.00,Tuesday
7,-6.275
8,6907.702667445452
9,1.0
10,715.0112779846514
11,1.0
12,715.0112779846514
13,6907.702667445452
14,8.954310216191692
15,23.858245546787363
16,11.03051455422451
17,0.9528346557908662
18,7.462828720028703
2,1, 1, 1, 0,11,15.00,30.00,Tuesday
7,-5.85
8,7284.390582955339
9,1.0
10,752.5077794605232
11,1.0
12,752.5077794605232
13,7284.390582955339
14,9.408242886932637
15,25.795495557970196
16,11.810307592967775
17,1.6653755502887294
18,7.881010097710046
2,1, 1, 1, 0,11,30.00,45.00,Tuesday
7,-5.425
8,7172.439532346116
9,1.0
10,742.5988714321785
11,1.0
12,742.5988714321785
13,7172.439532346116
14,9.685977757844384
15,25.647602075131496
16,12.054162374419605
17,1.9618388235034559
18,8.269931400008858
2,1, 1, 1, 0,11,45.00,60.00,Tuesday
7,-5.0
8,7012.474537249442
9,1.0
10,727.8169025450712
11,1.0
12,727.8169025450712
13,7012.474537249442
14,9.950559249787395
15,25.419346724854898
16,12.206448878033541
17,2.2194244489471659
18,8.6134348965292
2,1, 1, 1, 0,12, 0.00,15.00,Tuesday
7,-4.575
8,6737.383213522377
9,1.0
10,700.3759009170325
11,1.0
12,700.3759009170325
13,6737.383213522377
14,10.13994180622263
15,24.67739576384145
16,12.214922654558336
17,2.4095760370568657
18,8.909025600514076
2,1, 1, 1, 0,12,15.00,30.00,Tuesday
7,-4.15
8,6533.367409871273
9,1.0
10,681.6705029034473
11,1.0
12,681.6705029034473
13,6533.367409871273
14,10.315669761764117
15,24.346738297533397
16,12.285120471423966
17,2.664708529035579
18,9.168039109094366
2,1, 1, 1, 0,12,30.00,45.00,Tuesday
7,-3.7249999999999998
8,5735.752453838288
9,1.0
10,602.01865277251
11,1.0
12,602.01865277251
13,5735.752453838288
14,10.26304404024112
15,21.319600969192494
16,11.653117605139756
17,2.4236036802201399
18,9.365453023256699
2,1, 1, 1, 0,12,45.00,60.00,Tuesday
7,-3.3
8,4684.461078610567
9,1.0
10,493.55004396206007
11,1.0
12,493.55004396206007
13,4684.461078610567
14,10.068554741924299
15,17.141625574575224
16,10.576295956385366
17,1.9093240076394409
18,9.472140687977252
2,1, 1, 1, 0,13, 0.00,15.00,Tuesday
7,-3.0249999999999996
8,3867.9417682351988
9,1.0
10,412.335026418112
11,1.0
12,412.335026418112
13,3867.9417682351988
14,9.936808993869349
15,14.298191651538208
16,9.707879913206967
17,1.556756012727078
18,9.506796112620373
2,1, 1, 1, 0,13,15.00,30.00,Tuesday
7,-2.75
8,2832.9112038253649
9,1.0
10,305.94037763660148
11,1.0
12,305.94037763660148
13,2832.9112038253649
14,9.614390077118419
15,10.125821390760148
16,8.476173672023265
17,0.9605088183837438
18,9.479800521765718
2,1, 1, 1, 0,13,30.00,45.00,Tuesday
7,-2.475
8,2586.3476478244808
9,1.0
10,281.0763483922329
11,1.0
12,281.0763483922329
13,2586.3476478244808
14,9.594990778869038
15,9.6144882885052
16,8.252005618586907
17,1.0575119400972995
18,9.43217964190489
2,1, 1, 1, 0,13,45.00,60.00,Tuesday
7,-2.2
8,2344.9203514735729
9,1.0
10,256.7721209415886
11,1.0
12,256.7721209415886
13,2344.9203514735729
14,9.555120000573858
15,9.007559546215037
16,8.098425616067232
17,1.1823044727661909
18,9.391898370922356
2,1, 1, 1, 0,14, 0.00,15.00,Tuesday
7,-1.9250000000000003
8,1915.5614378460905
9,1.0
10,210.73276284570657
11,1.0
12,210.73276284570657
13,1915.5614378460905
14,9.402758100771827
15,7.461311384816318
16,7.657856002831295
17,1.0941991414655946
18,9.352950494617178
2,1, 1, 1, 0,14,15.00,30.00,Tuesday
7,-1.6500000000000002
8,1701.636890462901
9,1.0
10,189.38488290342594
11,1.0
12,189.38488290342594
13,1701.636890462901
14,9.365027847739157
15,7.056707269280665
16,7.490987841917558
17,1.2093757173487348
18,9.315984390428087
2,1, 1, 1, 0,14,30.00,45.00,Tuesday
7,-1.375
8,1622.8800248440066
9,1.0
10,179.3940297802914
11,1.0
12,179.3940297802914
13,1622.8800248440066
14,9.352067459081614
15,7.180304505467785
16,7.4976042892910759
17,1.43830541176726
18,9.284249434694214
2,1, 1, 1, 0,14,45.00,60.00,Tuesday
7,-1.1
8,1543.2234052226525
9,1.0
10,169.43349014176136
11,1.0
12,169.43349014176136
13,1543.2234052226525
14,9.335327830742554
15,7.280264513990713
16,7.497822519185888
17,1.6638154256222607
18,9.25772294146695
2,1, 1, 1, 0,15, 0.00,15.00,Tuesday
7,-1.1
8,1624.3394505603424
9,1.0
10,178.15692317953907
11,1.0
12,178.15692317953907
13,1624.3394505603424
14,9.39807300385588
15,8.098069950678474
16,7.6294025806666359
17,1.817714305497475
18,9.240951589918076
2,1, 1, 1, 0,15,15.00,30.00,Tuesday
7,-1.1
8,1526.0223033702039
9,1.0
10,166.40516310952945
11,1.0
12,166.40516310952945
13,1526.0223033702039
14,9.34177497184848
15,7.736848881572422
16,7.518166839457422
17,1.7780439409850715
18,9.226802160299057
2,1, 1, 1, 0,15,30.00,45.00,Tuesday
7,-1.1
8,1286.7145871122662
9,1.0
10,140.8967369711617
11,1.0
12,140.8967369711617
13,1286.7145871122662
14,9.216242574362673
15,6.531674042138156
16,7.188072750618915
17,1.5722671281900489
18,9.202920989266869
2,1, 1, 1, 0,15,45.00,60.00,Tuesday
7,-1.1
8,1058.8612402206416
9,1.0
10,116.57355796743004
11,1.0
12,116.57355796743004
13,1058.8612402206416
14,9.077629393351526
15,5.320292350571259
16,6.854463491173647
17,1.3602270997920983
18,9.162230755494085
2,1, 1, 1, 0,16, 0.00,15.00,Tuesday
7,-1.1
8,840.3726933531048
9,1.0
10,93.14939272689483
11,1.0
12,93.14939272689483
13,840.3726933531048
14,8.961585514689992
15,4.27424997455813
16,6.569087875356331
17,1.2361928177996334
18,9.10350121669593
2,1, 1, 1, 0,16,15.00,30.00,Tuesday
7,-1.1
8,521.7048907738913
9,1.0
10,57.94047897402063
11,1.0
12,57.94047897402063
13,521.7048907738913
14,8.748814961854553
15,2.151994890942954
16,6.112091809158073
17,0.9650937429248074
18,9.019832033962118
2,1, 1, 1, 0,16,30.00,45.00,Tuesday
7,-1.1
8,404.4917082756416
9,1.0
10,45.38251793443488
11,1.0
12,45.38251793443488
13,404.4917082756416
14,8.667627159409383
15,1.5450951369510362
16,5.932894712061568
17,0.9423315606931624
18,8.92447765908762
2,1, 1, 1, 0,16,45.00,60.00,Tuesday
7,-1.1
8,282.362010079345
9,1.0
10,32.02625108222755
11,1.0
12,32.02625108222755
13,282.362010079345
14,8.544243572802609
15,0.6847338186523342
16,5.765307627385084
17,0.9177268182202738
18,8.829895773477136
2,1, 1, 1, 0,17, 0.00,15.00,Tuesday
7,-1.1
8,154.8751670521773
9,1.0
10,17.762198626050539
11,1.0
12,17.762198626050539
13,154.8751670521773
14,8.395835070961529
15,-0.5622366915447938
16,5.532995453156445
17,0.7899890380649595
18,8.734564016411343
2,1, 1, 1, 0,17,15.00,30.00,Tuesday
7,-1.1
8,0.0
9,0.0
10,0.0
11,0.0
12,0.0
13,0.0
14,8.195335732223816
15,-2.3976205788149596
16,5.198813277244881
17,0.5133800589794078
18,8.625216498934055
2,1, 1, 1, 0,17,30.00,45.00,Tuesday
7,-1.1
8,0.0
9,0.0
10,0.0
11,0.0
12,0.0
13,0.0
14,8.13492812160937
15,-2.531291976589993
16,5.1491392640765529
17,0.5628439982396571
18,8.518096196007982
2,1, 1, 1, 0,17,45.00,60.00,Tuesday
7,-1.1
8,0.0
9,0.0
10,0.0
11,0.0
12,0.0
13,0.0
14,8.057331631053833
15,-2.7188542724665329
16,5.130171824211516
17,0.6259770842008265
18,8.427949061697234
2,1, 1, 1, 0,18, 0.00,15.00,Tuesday
7,-1.25
8,0.0
9,0.0
10,0.0
11,0.0
12,0.0
13,0.0
14,7.990907515311495
15,-2.86718227171353
16,5.023326535257468
17,0.49632786596032477
18,8.35472951478399
2,1, 1, 1, 0,18,15.00,30.00,Tuesday
7,-1.4
8,0.0
9,0.0
10,0.0
11,0.0
12,0.0
13,0.0
14,7.929873758884347
15,-3.019718490011611
16,4.933344781887683
17,0.3721106053174026
18,8.292638664273174
2,1, 1, 1, 0,18,30.00,45.00,Tuesday
7,-1.5499999999999999
8,0.0
9,0.0
10,0.0
11,0.0
12,0.0
13,0.0
14,7.872793362844858
15,-3.1718556006127565
16,4.847884351762161
17,0.2488163371660903
18,8.23624458491385
2,1, 1, 1, 0,18,45.00,60.00,Tuesday
7,-1.7
8,0.0
9,0.0
10,0.0
11,0.0
12,0.0
13,0.0
14,7.817447562669896
15,-3.324167025626423
16,4.764937429584393
17,0.12635414493047393
18,8.182356755139898
2,1, 1, 1, 0,19, 0.00,15.00,Tuesday
7,-1.825
8,0.0
9,0.0
10,0.0
11,0.0
12,0.0
13,0.0
14,7.784871978098591
15,-3.1824290845811027
16,4.636211152341616
17,-0.09176766025990446
18,8.132381332553706
2,1, 1, 1, 0,19,15.00,30.00,Tuesday
7,-1.9500000000000002
8,0.0
9,0.0
10,0.0
11,0.0
12,0.0
13,0.0
14,7.752629676434094
15,-3.1213499865636495
16,4.524528581695449
17,-0.2986096759036059
18,8.088213257930276
2,1, 1, 1, 0,19,30.00,45.00,Tuesday
7,-2.075
8,0.0
9,0.0
10,0.0
11,0.0
12,0.0
13,0.0
14,7.715100675702978
15,-3.196854629081038
16,4.454183089596654
17,-0.4277173763149449
18,8.049035595586736
2,1, 1, 1, 0,19,45.00,60.00,Tuesday
7,-2.2
8,0.0
9,0.0
10,0.0
11,0.0
12,0.0
13,0.0
14,7.6788982194747519
15,-3.179616055270077
16,4.3454687195726369
17,-0.6259041820520679
18,8.011561838046238
2,1, 1, 1, 0,20, 0.00,15.00,Tuesday
7,-1.9250000000000003
8,0.0
9,0.0
10,0.0
11,0.0
12,0.0
13,0.0
14,7.661506180344898
15,-2.8796990651938798
16,4.412859168198679
17,-0.4709935874718667
18,7.977505020736329
2,1, 1, 1, 0,20,15.00,30.00,Tuesday
7,-1.6500000000000002
8,0.0
9,0.0
10,0.0
11,0.0
12,0.0
13,0.0
14,7.643635202480971
15,-2.582709442425651
16,4.470808763169998
17,-0.2969578001799391
18,7.947769781406908
2,1, 1, 1, 0,20,30.00,45.00,Tuesday
7,-1.375
8,0.0
9,0.0
10,0.0
11,0.0
12,0.0
13,0.0
14,7.627995214884717
15,-2.28688872481569
16,4.523707230671789
17,-0.10767514962390124
18,7.9215899956487318
2,1, 1, 1, 0,20,45.00,60.00,Tuesday
7,-1.1
8,0.0
9,0.0
10,0.0
11,0.0
12,0.0
13,0.0
14,7.614381627180782
15,-1.99228615457263
16,4.589503765867903
17,0.06605066852142727
18,7.89802728081045
2,1, 1, 1, 0,21, 0.00,15.00,Tuesday
7,-1.25
8,0.0
9,0.0
10,0.0
11,0.0
12,0.0
13,0.0
14,7.560645564235009
15,-2.2685063699721605
16,4.567472927619235
17,0.06530996513345144
18,7.870131716226453
2,1, 1, 1, 0,21,15.00,30.00,Tuesday
7,-1.4
8,0.0
9,0.0
10,0.0
11,0.0
12,0.0
13,0.0
14,7.507565832455861
15,-2.4824673792226794
16,4.511903855036792
17,0.01220341903103872
18,7.832856210440746
2,1, 1, 1, 0,21,30.00,45.00,Tuesday
7,-1.5499999999999999
8,0.0
9,0.0
10,0.0
11,0.0
12,0.0
13,0.0
14,7.44189702328872
15,-2.820264333734401
16,4.494209115663409
17,0.017064870729484484
18,7.785859216181607
2,1, 1, 1, 0,21,45.00,60.00,Tuesday
7,-1.7
8,0.0
9,0.0
10,0.0
11,0.0
12,0.0
13,0.0
14,7.371044834195324
15,-3.264647508769589
16,4.475459056474733
17,0.058017653374918157
18,7.73166157342336
2,1, 1, 1, 0,22, 0.00,15.00,Tuesday
7,-1.5499999999999999
8,0.0
9,0.0
10,0.0
11,0.0
12,0.0
13,0.0
14,7.3656887196127329
15,-2.78602320387698
16,4.408676220864322
17,-0.002968724875586304
18,7.682659437452238
2,1, 1, 1, 0,22,15.00,30.00,Tuesday
7,-1.4
8,0.0
9,0.0
10,0.0
11,0.0
12,0.0
13,0.0
14,7.350719087913769
15,-2.4620225226632148
16,4.383805050200408
17,-0.023920919353599858
18,7.6457076538635919
2,1, 1, 1, 0,22,30.00,45.00,Tuesday
7,-1.25
8,0.0
9,0.0
10,0.0
11,0.0
12,0.0
13,0.0
14,7.3350217636707148
15,-2.244725170710075
16,4.3930160152893908
17,0.022890693180499967
18,7.618954552653047
2,1, 1, 1, 0,22,45.00,60.00,Tuesday
7,-1.1
8,0.0
9,0.0
10,0.0
11,0.0
12,0.0
13,0.0
14,7.322857706730857
15,-1.9671111121328127
16,4.382691949651701
17,0.02752780203002203
18,7.597239881124477
2,1, 1, 1, 0,23, 0.00,15.00,Tuesday
7,-1.25
8,0.0
9,0.0
10,0.0
11,0.0
12,0.0
13,0.0
14,7.267251305157502
15,-2.270505831258971
16,4.253406585014204
17,-0.2235489159579629
18,7.569776981713054
2,1, 1, 1, 0,23,15.00,30.00,Tuesday
7,-1.4
8,0.0
9,0.0
10,0.0
11,0.0
12,0.0
13,0.0
14,7.213852241159608
15,-2.5752468608646117
16,4.117002856561157
17,-0.4881569379371058
18,7.531577139838678
2,1, 1, 1, 0,23,30.00,45.00,Tuesday
7,-1.5499999999999999
8,0.0
9,0.0
10,0.0
11,0.0
12,0.0
13,0.0
14,7.155479751495592
15,-2.8806415513754475
16,3.978818972557633
17,-0.7541058361567821
18,7.48410803203401
2,1, 1, 1, 0,23,45.00,60.00,Tuesday
7,-1.7
8,0.0
9,0.0
10,0.0
11,0.0
12,0.0
13,0.0
14,7.0930684037767339
15,-3.1863800387550484
16,3.8368364098007534
17,-1.021886248593205
18,7.430591203990784
2,1, 1, 1, 0,24, 0.00,15.00,Tuesday
7,-1.7
8,0.0
9,0.0
10,0.0
11,0.0
12,0.0
13,0.0
14,7.046944478190663
15,-3.240610363483717
16,3.7810478831033835
17,-1.0864956343748987
18,7.377141821937395
2,1, 1, 1, 0,24,15.00,30.00,Tuesday
7,-1.7
8,0.0
9,0.0
10,0.0
11,0.0
12,0.0
13,0.0
14,6.998813168467625
15,-3.2954173259535639
16,3.7273218796381117
17,-1.147730925626206
18,7.3267999564286179
2,1, 1, 1, 0,24,30.00,45.00,Tuesday
7,-1.7
8,0.0
9,0.0
10,0.0
11,0.0
12,0.0
13,0.0
14,6.951994246877078
15,-3.3501107041304296
16,3.6734666200677568
17,-1.208883864243603
18,7.279339822251558
2,1, 1, 1, 0,24,45.00,60.00,Tuesday
7,-1.7
8,0.0
9,0.0
10,0.0
11,0.0
12,0.0
13,0.0
14,6.906122821485602
15,-3.404807808135646
16,3.620495160011899
17,-1.2697496535092797
18,7.23353251617334
End of Data
 Number of Records Written=        1152
