Program Version,EnergyPlus, Version 9.5.0-de239b2e5f, YMD=2023.02.17 15:25
1,5,Environment Title[],Latitude[deg],Longitude[deg],Time Zone[],Elevation[m]
2,8,Day of Simulation[],Month[],Day of Month[],DST Indicator[1=yes 0=no],Hour[],StartMinute[],EndMinute[],DayType
3,5,Cumulative Day of Simulation[],Month[],Day of Month[],DST Indicator[1=yes 0=no],DayType  ! When Daily Report Variables Requested
4,2,Cumulative Days of Simulation[],Month[]  ! When Monthly Report Variables Requested
5,1,Cumulative Days of Simulation[] ! When Run Period Report Variables Requested
6,1,Calendar Year of Simulation[] ! When Annual Report Variables Requested
7,1,Environment,Site Outdoor Air Drybulb Temperature [C] !TimeStep
8,1,ZONE ONE,Zone Windows Total Transmitted Solar Radiation Rate [W] !TimeStep
9,1,ZN001:WALL001,Surface Outside Face Sunlit Fraction [] !TimeStep
10,1,ZN001:WALL001,Surface Outside Face Incident Solar Radiation Rate per Area [W/m2] !TimeStep
11,1,ZN001:WALL001:WIN001,Surface Outside Face Sunlit Fraction [] !TimeStep
12,1,ZN001:WALL001:WIN001,Surface Outside Face Incident Solar Radiation Rate per Area [W/m2] !TimeStep
13,1,ZN001:WALL001:WIN001,Surface Window Transmitted Solar Radiation Rate [W] !TimeStep
14,1,ZN001:WALL001,Surface Inside Face Temperature [C] !TimeStep
15,1,ZN001:WALL001,Surface Outside Face Temperature [C] !TimeStep
16,1,ZN001:WALL001:WIN001,Surface Inside Face Temperature [C] !TimeStep
17,1,ZN001:WALL001:WIN001,Surface Outside Face Temperature [C] !TimeStep
18,1,ZONE ONE,Zone Mean Air Temperature [C] !TimeStep
End of Data Dictionary
1,RUN PERIOD 1,  41.98, -87.92,  -6.00, 201.00
2,1, 1, 1, 0, 1, 0.00,15.00,Tuesday
7,-4.324999999999999
8,0.0
9,0.0
10,0.0
11,0.0
12,0.0
13,0.0
14,8.732231605099264
15,-5.84500665636957
16,5.576026327975001
17,-3.630733210274343
18,9.255549998209512
2,1, 1, 1, 0, 1,15.00,30.00,Tuesday
7,-6.949999999999999
8,0.0
9,0.0
10,0.0
11,0.0
12,0.0
13,0.0
14,8.543160845563066
15,-8.311955773984389
16,4.923256906825259
17,-5.676541561649401
18,9.145569428454302
2,1, 1, 1, 0, 1,30.00,45.00,Tuesday
7,-9.575
8,0.0
9,0.0
10,0.0
11,0.0
12,0.0
13,0.0
14,8.333245094413006
15,-10.786851311122508
16,4.263029833661506
17,-7.728274959853479
18,9.003713214195463
2,1, 1, 1, 0, 1,45.00,60.00,Tuesday
7,-12.2
8,0.0
9,0.0
10,0.0
11,0.0
12,0.0
13,0.0
14,8.107116452170838
15,-13.268396583224357
16,3.5873984323358174
17,-9.787543619349492
18,8.840236866839719
2,1, 1, 1, 0, 2, 0.00,15.00,Tuesday
7,-12.075
8,0.0
9,0.0
10,0.0
11,0.0
12,0.0
13,0.0
14,8.027360101941938
15,-13.069031066600257
16,3.5198503051148579
17,-9.628952025370154
18,8.693317925699985
2,1, 1, 1, 0, 2,15.00,30.00,Tuesday
7,-11.95
8,0.0
9,0.0
10,0.0
11,0.0
12,0.0
13,0.0
14,7.934903580333565
15,-12.89217955221004
16,3.4810800627478217
17,-9.492442842652054
18,8.579548517081316
2,1, 1, 1, 0, 2,30.00,45.00,Tuesday
7,-11.825
8,0.0
9,0.0
10,0.0
11,0.0
12,0.0
13,0.0
14,7.860194327990287
15,-12.714172542420798
16,3.448798515635758
17,-9.355246668708219
18,8.492556513826785
2,1, 1, 1, 0, 2,45.00,60.00,Tuesday
7,-11.7
8,0.0
9,0.0
10,0.0
11,0.0
12,0.0
13,0.0
14,7.796773113466284
15,-12.536259272836844
16,3.429324495897731
17,-9.215032352672381
18,8.420713522852479
2,1, 1, 1, 0, 3, 0.00,15.00,Tuesday
7,-11.549999999999999
8,0.0
9,0.0
10,0.0
11,0.0
12,0.0
13,0.0
14,7.7351366723977
15,-12.40874019424904
16,3.420585131245616
17,-9.062433696403048
18,8.355033470652144
2,1, 1, 1, 0, 3,15.00,30.00,Tuesday
7,-11.399999999999999
8,0.0
9,0.0
10,0.0
11,0.0
12,0.0
13,0.0
14,7.676537029900555
15,-12.282526949745533
16,3.4135204451887946
17,-8.909506455665906
18,8.291302906036009
2,1, 1, 1, 0, 3,30.00,45.00,Tuesday
7,-11.25
8,0.0
9,0.0
10,0.0
11,0.0
12,0.0
13,0.0
14,7.618738230008044
15,-12.157760561167994
16,3.408111613331016
17,-8.756260537676497
18,8.228430894881847
2,1, 1, 1, 0, 3,45.00,60.00,Tuesday
7,-11.1
8,0.0
9,0.0
10,0.0
11,0.0
12,0.0
13,0.0
14,7.561452605850338
15,-12.034494210577279
16,3.403332952282483
17,-8.602989904406684
18,8.16636503143837
2,1, 1, 1, 0, 4, 0.00,15.00,Tuesday
7,-11.1
8,0.0
9,0.0
10,0.0
11,0.0
12,0.0
13,0.0
14,7.5002369170005889
15,-12.008229080966915
16,3.3378297961335194
17,-8.655096335635335
18,8.104051686352574
2,1, 1, 1, 0, 4,15.00,30.00,Tuesday
7,-11.1
8,0.0
9,0.0
10,0.0
11,0.0
12,0.0
13,0.0
14,7.439409249824408
15,-11.98297328116063
16,3.276415511560913
17,-8.705671728747348
18,8.041090964193021
2,1, 1, 1, 0, 4,30.00,45.00,Tuesday
7,-11.1
8,0.0
9,0.0
10,0.0
11,0.0
12,0.0
13,0.0
14,7.378323308197092
15,-11.959150434242727
16,3.215433247800206
17,-8.755124736868993
18,7.977673025272275
2,1, 1, 1, 0, 4,45.00,60.00,Tuesday
7,-11.1
8,0.0
9,0.0
10,0.0
11,0.0
12,0.0
13,0.0
14,7.317127537693865
15,-11.93663135999724
16,3.1546872867577919
17,-8.80333144384764
18,7.91410460532652
2,1, 1, 1, 0, 5, 0.00,15.00,Tuesday
7,-10.975
8,0.0
9,0.0
10,0.0
11,0.0
12,0.0
13,0.0
14,7.26159588234453
15,-11.814915812578182
16,3.137535943705302
17,-8.722477243305207
18,7.851782092803337
2,1, 1, 1, 0, 5,15.00,30.00,Tuesday
7,-10.85
8,0.0
9,0.0
10,0.0
11,0.0
12,0.0
13,0.0
14,7.206336645247334
15,-11.693252191439474
16,3.1175194083062935
17,-8.633393301237107
18,7.7912273098323949
2,1, 1, 1, 0, 5,30.00,45.00,Tuesday
7,-10.725
8,0.0
9,0.0
10,0.0
11,0.0
12,0.0
13,0.0
14,7.152209811842264
15,-11.571563382771612
16,3.0977637396470074
17,-8.543359295444418
18,7.732159525694013
2,1, 1, 1, 0, 5,45.00,60.00,Tuesday
7,-10.6
8,0.0
9,0.0
10,0.0
11,0.0
12,0.0
13,0.0
14,7.099011805341107
15,-11.44988347250334
16,3.0788636798708355
17,-8.453038255068293
18,7.67414975866119
2,1, 1, 1, 0, 6, 0.00,15.00,Tuesday
7,-10.6
8,0.0
9,0.0
10,0.0
11,0.0
12,0.0
13,0.0
14,7.039040355601646
15,-11.451032747354385
16,3.0285578017628724
17,-8.45739631180777
18,7.615513317794847
2,1, 1, 1, 0, 6,15.00,30.00,Tuesday
7,-10.6
8,0.0
9,0.0
10,0.0
11,0.0
12,0.0
13,0.0
14,6.979721693899246
15,-11.452146036933698
16,2.979701364230664
17,-8.468005079662476
18,7.555544753992719
2,1, 1, 1, 0, 6,30.00,45.00,Tuesday
7,-10.6
8,0.0
9,0.0
10,0.0
11,0.0
12,0.0
13,0.0
14,6.919871797917918
15,-11.453301218747358
16,2.9310759855766266
17,-8.47919523742894
18,7.4945677723191939
2,1, 1, 1, 0, 6,45.00,60.00,Tuesday
7,-10.6
8,0.0
9,0.0
10,0.0
11,0.0
12,0.0
13,0.0
14,6.859741422995346
15,-11.454453063663385
16,2.8821179464023318
17,-8.490541882041726
18,7.433126582814978
2,1, 1, 1, 0, 7, 0.00,15.00,Tuesday
7,-10.6
8,0.0
9,0.0
10,0.0
11,0.0
12,0.0
13,0.0
14,6.8014473841221749
15,-11.432688530719443
16,2.822633985401467
17,-8.532357388498895
18,7.371825977404097
2,1, 1, 1, 0, 7,15.00,30.00,Tuesday
7,-10.6
8,0.0
9,0.0
10,0.0
11,0.0
12,0.0
13,0.0
14,6.743071803281886
15,-11.412054304244189
16,2.765507921578319
17,-8.57464160352447
18,7.310986638009232
2,1, 1, 1, 0, 7,30.00,45.00,Tuesday
7,-10.6
8,0.0
9,0.0
10,0.0
11,0.0
12,0.0
13,0.0
14,6.6849963202687079
15,-11.392473707425222
16,2.708983660502213
17,-8.615944046988375
18,7.250603085662041
2,1, 1, 1, 0, 7,45.00,60.00,Tuesday
7,-10.6
8,0.0
9,0.0
10,0.0
11,0.0
12,0.0
13,0.0
14,6.6272298606710369
15,-11.373883646343368
16,2.653059503578902
17,-8.656061270218402
18,7.1905823874313239
2,1, 1, 1, 0, 8, 0.00,15.00,Tuesday
7,-10.45
8,0.0
9,0.0
10,0.0
11,0.0
12,0.0
13,0.0
14,6.569185953066755
15,-11.323733866991124
16,2.6307721516204198
17,-8.598402197742871
18,7.130768203106465
2,1, 1, 1, 0, 8,15.00,30.00,Tuesday
7,-10.3
8,215.5879980222353
9,1.0
10,22.819555959623899
11,1.0
12,22.819555959623899
13,215.5879980222353
14,6.642267354470516
15,-9.649580781605926
16,2.892134766822778
17,-8.285671551036046
18,7.091934046120994
2,1, 1, 1, 0, 8,30.00,45.00,Tuesday
7,-10.15
8,1058.5392312119832
9,1.0
10,109.75755355442667
11,1.0
12,109.75755355442667
13,1058.5392312119832
14,7.074442396959071
15,-3.272124249624155
16,4.019219211953782
17,-7.2739689903169169
18,7.132329480709151
2,1, 1, 1, 0, 8,45.00,60.00,Tuesday
7,-10.0
8,1924.8399544048012
9,1.0
10,195.8764694434918
11,1.0
12,195.8764694434918
13,1924.8399544048012
14,7.624717689377892
15,3.2020211816939176
16,5.251274924756785
17,-6.250624428116566
18,7.259671922282244
2,1, 1, 1, 0, 9, 0.00,15.00,Tuesday
7,-9.725
8,2788.1568045040946
9,1.0
10,278.97248314719988
11,1.0
12,278.97248314719988
13,2788.1568045040946
14,8.102796501269616
15,8.379714627931996
16,6.487475974538654
17,-5.355633000781211
18,7.448328571676324
2,1, 1, 1, 0, 9,15.00,30.00,Tuesday
7,-9.45
8,3698.191694964431
9,1.0
10,364.91995730569456
11,1.0
12,364.91995730569456
13,3698.191694964431
14,8.590747916751214
15,13.454576559396305
16,7.858604759625052
17,-4.435014973736315
18,7.687420235277246
2,1, 1, 1, 0, 9,30.00,45.00,Tuesday
7,-9.175
8,4300.2673206835229
9,1.0
10,420.35879993239237
11,1.0
12,420.35879993239237
13,4300.2673206835229
14,8.948072687733129
15,16.210936845781654
16,8.773152949172357
17,-3.860768279020533
18,7.953327540863028
2,1, 1, 1, 0, 9,45.00,60.00,Tuesday
7,-8.9
8,4925.271017558337
9,1.0
10,478.00138373643099
11,1.0
12,478.00138373643099
13,4925.271017558337
14,9.363424001983655
15,19.205004766919374
16,9.671132022379709
17,-3.2736129316788267
18,8.234620602127127
2,1, 1, 1, 0,10, 0.00,15.00,Tuesday
7,-8.350000000000002
8,5563.47927965646
9,1.0
10,536.9185644770597
11,1.0
12,536.9185644770597
13,5563.47927965646
14,9.729838140880224
15,20.318582595853415
16,10.598472278122302
17,-2.650054193507003
18,8.531926230878203
2,1, 1, 1, 0,10,15.00,30.00,Tuesday
7,-7.800000000000001
8,6223.735720388039
9,1.0
10,598.0969199229219
11,1.0
12,598.0969199229219
13,6223.735720388039
14,10.128910793850201
15,21.568605023614255
16,11.541652736781657
17,-2.0219296015878855
18,8.673040288551884
2,1, 1, 1, 0,10,30.00,45.00,Tuesday
7,-7.25
8,6656.871608685562
9,1.0
10,637.6133352894237
11,1.0
12,637.6133352894237
13,6656.871608685562
14,10.40332205901622
15,21.62428637059921
16,12.221245162995672
17,-1.5743169405052414
18,8.945628809245307
2,1, 1, 1, 0,10,45.00,60.00,Tuesday
7,-6.7
8,7083.627635407371
9,1.0
10,676.6412284283772
11,1.0
12,676.6412284283772
13,7083.627635407371
14,10.669819053781254
15,21.781051772964458
16,12.842892926501918
17,-1.1314187692785823
18,9.147918171652968
2,1, 1, 1, 0,11, 0.00,15.00,Tuesday
7,-6.275
8,7502.619881932496
9,1.0
10,715.0112779846514
11,1.0
12,715.0112779846514
13,7502.619881932496
14,11.090110422492167
15,23.880790120455417
16,13.540601267780176
17,-0.46480580674500518
18,9.614011272581302
2,1, 1, 1, 0,11,15.00,30.00,Tuesday
7,-5.85
8,7911.749570952164
9,1.0
10,752.5077794605232
11,1.0
12,752.5077794605232
13,7911.749570952164
14,11.563569420827234
15,25.818084422762668
16,14.28851289600567
17,0.19377659939840442
18,10.04936671750838
2,1, 1, 1, 0,11,30.00,45.00,Tuesday
7,-5.425
8,7790.156876744835
9,1.0
10,742.5988714321785
11,1.0
12,742.5988714321785
13,7790.156876744835
14,11.855097493788744
15,25.670090083832215
16,14.554011382216629
17,0.5108802867073337
18,10.45540925952179
2,1, 1, 1, 0,11,45.00,60.00,Tuesday
7,-5.0
8,7616.415097398768
9,1.0
10,727.8169025450712
11,1.0
12,727.8169025450712
13,7616.415097398768
14,12.13336046181871
15,25.442033928546473
16,14.723622383644852
17,0.7977197496724102
18,10.81547598761043
2,1, 1, 1, 0,12, 0.00,15.00,Tuesday
7,-4.575
8,7317.63187899619
9,1.0
10,700.3759009170325
11,1.0
12,700.3759009170325
13,7317.63187899619
14,12.333908607344956
15,24.70021698662904
16,14.75315202768752
17,1.0357122203705558
18,11.125474156800334
2,1, 1, 1, 0,12,15.00,30.00,Tuesday
7,-4.15
8,7096.045470548525
9,1.0
10,681.6705029034473
11,1.0
12,681.6705029034473
13,7096.045470548525
14,12.55454441976194
15,24.370617471633623
16,14.846334878505786
17,1.3348643513361367
18,11.398057759509426
2,1, 1, 1, 0,12,30.00,45.00,Tuesday
7,-3.7249999999999998
8,6229.736928425406
9,1.0
10,602.01865277251
11,1.0
12,602.01865277251
13,6229.736928425406
14,12.468492564516517
15,21.341926465124076
16,14.278145579062653
17,1.2123909161206257
18,11.608417805348689
2,1, 1, 1, 0,12,45.00,60.00,Tuesday
7,-3.3
8,5087.904404183855
9,1.0
10,493.55004396206007
11,1.0
12,493.55004396206007
13,5087.904404183855
14,12.274186064368907
15,17.16494857466466
16,13.276263064997579
17,0.8580346460381634
18,11.724011224355872
2,1, 1, 1, 0,13, 0.00,15.00,Tuesday
7,-3.0249999999999996
8,4201.063393949559
9,1.0
10,412.335026418112
11,1.0
12,412.335026418112
13,4201.063393949559
14,12.140647433276444
15,14.321911616223116
16,12.468083940638167
17,0.6332593062275578
18,11.763489979625059
2,1, 1, 1, 0,13,15.00,30.00,Tuesday
7,-2.75
8,3076.892122430221
9,1.0
10,305.94037763660148
11,1.0
12,305.94037763660148
13,3076.892122430221
14,11.805402845393127
15,10.149660721645195
16,11.281422057167731
17,0.1948897245979424
18,11.738750550264987
2,1, 1, 1, 0,13,30.00,45.00,Tuesday
7,-2.475
8,2809.0935899127655
9,1.0
10,281.0763483922329
11,1.0
12,281.0763483922329
13,2809.0935899127655
14,11.780474502518763
15,9.638742342387238
16,11.014771636899014
17,0.33947046396190219
18,11.692649687436168
2,1, 1, 1, 0,13,45.00,60.00,Tuesday
7,-2.2
8,2546.8736709552365
9,1.0
10,256.7721209415886
11,1.0
12,256.7721209415886
13,2546.8736709552365
14,11.740760862393559
15,9.032458065566985
16,10.840404028154467
17,0.5106128693532241
18,11.653028338462696
2,1, 1, 1, 0,14, 0.00,15.00,Tuesday
7,-1.9250000000000003
8,2080.536760270814
9,1.0
10,210.73276284570657
11,1.0
12,210.73276284570657
13,2080.536760270814
14,11.578437311322093
15,7.486369896419079
16,10.391563332518047
17,0.4888567423255381
18,11.614525030081018
2,1, 1, 1, 0,14,15.00,30.00,Tuesday
7,-1.6500000000000002
8,1848.1882299855229
9,1.0
10,189.38488290342594
11,1.0
12,189.38488290342594
13,1848.1882299855229
14,11.535499020347436
15,7.083389289070716
16,10.19301906710109
17,0.6419736832551735
18,11.578106098517204
2,1, 1, 1, 0,14,30.00,45.00,Tuesday
7,-1.375
8,1762.648528253172
9,1.0
10,179.3940297802914
11,1.0
12,179.3940297802914
13,1762.648528253172
14,11.519551676428245
15,7.208653735502639
16,10.161705730624363
17,0.8891407041921866
18,11.546090392454591
2,1, 1, 1, 0,14,45.00,60.00,Tuesday
7,-1.1
8,1676.1315823352277
9,1.0
10,169.43349014176136
11,1.0
12,169.43349014176136
13,1676.1315823352277
14,11.499551832346845
15,7.30949445931607
16,10.123206491429869
17,1.1347129910876675
18,11.518026373393138
2,1, 1, 1, 0,15, 0.00,15.00,Tuesday
7,-1.1
8,1764.2336451764168
9,1.0
10,178.15692317953907
11,1.0
12,178.15692317953907
13,1764.2336451764168
14,11.567104323473723
15,8.12995143490384
16,10.233096582647704
17,1.2683647939526282
18,11.49862249567456
2,1, 1, 1, 0,15,15.00,30.00,Tuesday
7,-1.1
8,1657.44905719483
9,1.0
10,166.40516310952945
11,1.0
12,166.40516310952945
13,1657.44905719483
14,11.507795282053245
15,7.767885584975939
16,10.12075045067138
17,1.235427303436154
18,11.481712405427896
2,1, 1, 1, 0,15,30.00,45.00,Tuesday
7,-1.1
8,1397.5312645024297
9,1.0
10,140.8967369711617
11,1.0
12,140.8967369711617
13,1397.5312645024297
14,11.371842863398456
15,6.56114107672935
16,9.79859488448767
17,1.0596709619289869
18,11.454501168034226
2,1, 1, 1, 0,15,45.00,60.00,Tuesday
7,-1.1
8,1150.0543343484979
9,1.0
10,116.57355796743004
11,1.0
12,116.57355796743004
13,1150.0543343484979
14,11.24461170629863
15,5.358595711228142
16,9.472011228262773
17,0.8765852984302
18,11.408615358710895
2,1, 1, 1, 0,16, 0.00,15.00,Tuesday
7,-1.1
8,912.7487358563033
9,1.0
10,93.14939272689483
11,1.0
12,93.14939272689483
13,912.7487358563033
14,11.125116790273493
15,4.3117051068205589
16,9.183029576465174
17,0.7822579478150828
18,11.343686378107448
2,1, 1, 1, 0,16,15.00,30.00,Tuesday
7,-1.1
8,566.636069103818
9,1.0
10,57.94047897402063
11,1.0
12,57.94047897402063
13,566.636069103818
14,10.90871962568036
15,2.1929554185346329
16,8.734773347055864
17,0.5589748002001329
18,11.252848636753195
2,1, 1, 1, 0,16,30.00,45.00,Tuesday
7,-1.1
8,439.3280485110057
9,1.0
10,45.38251793443488
11,1.0
12,45.38251793443488
13,439.3280485110057
14,10.82143054680543
15,1.5889926450928054
16,8.534152982072215
17,0.5546428523294935
18,11.150628171755195
2,1, 1, 1, 0,16,45.00,60.00,Tuesday
7,-1.1
8,306.6800834820858
9,1.0
10,32.02625108222755
11,1.0
12,32.02625108222755
13,306.6800834820858
14,10.692978154180038
15,0.7331871331934373
16,8.352432000344038
17,0.5512613096892665
18,11.049997603566796
2,1, 1, 1, 0,17, 0.00,15.00,Tuesday
7,-1.1
8,168.21359625367695
9,1.0
10,17.762198626050539
11,1.0
12,17.762198626050539
13,168.21359625367695
14,10.54034727733955
15,-0.5078918030605308
16,8.11637008718742
17,0.4415510727685046
18,10.949135143031097
2,1, 1, 1, 0,17,15.00,30.00,Tuesday
7,-1.1
8,0.0
9,0.0
10,0.0
11,0.0
12,0.0
13,0.0
14,10.336376866320049
15,-2.340353317968376
16,7.797185068330236
17,0.19365060454435935
18,10.83435827557598
2,1, 1, 1, 0,17,30.00,45.00,Tuesday
7,-1.1
8,0.0
9,0.0
10,0.0
11,0.0
12,0.0
13,0.0
14,10.270993775610627
15,-2.471304548496728
16,7.717315647348528
17,0.2445014643723198
18,10.722136065894118
2,1, 1, 1, 0,17,45.00,60.00,Tuesday
7,-1.1
8,0.0
9,0.0
10,0.0
11,0.0
12,0.0
13,0.0
14,10.188776109907105
15,-2.6538691572591408
16,7.677409400176316
17,0.3091002184110039
18,10.627381605473536
2,1, 1, 1, 0,18, 0.00,15.00,Tuesday
7,-1.25
8,0.0
9,0.0
10,0.0
11,0.0
12,0.0
13,0.0
14,10.118077804335739
15,-2.802825073322819
16,7.576492565334092
17,0.17027849112275818
18,10.550137113454064
2,1, 1, 1, 0,18,15.00,30.00,Tuesday
7,-1.4
8,0.0
9,0.0
10,0.0
11,0.0
12,0.0
13,0.0
14,10.053111887666928
15,-2.9553445826575754
16,7.490401535174328
17,0.03827839026678248
18,10.484396917399195
2,1, 1, 1, 0,18,30.00,45.00,Tuesday
7,-1.5499999999999999
8,0.0
9,0.0
10,0.0
11,0.0
12,0.0
13,0.0
14,9.992324541698017
15,-3.10753593149201
16,7.4090306006362429
17,-0.09282141628091267
18,10.424492679005804
2,1, 1, 1, 0,18,45.00,60.00,Tuesday
7,-1.7
8,0.0
9,0.0
10,0.0
11,0.0
12,0.0
13,0.0
14,9.93337453614201
15,-3.2598956952597968
16,7.330444999376198
17,-0.22323539424508
18,10.367110761596875
2,1, 1, 1, 0,19, 0.00,15.00,Tuesday
7,-1.825
8,0.0
9,0.0
10,0.0
11,0.0
12,0.0
13,0.0
14,9.896493619353209
15,-3.1256818550317915
16,7.223287321917837
17,-0.44112864175480129
18,10.31387734284097
2,1, 1, 1, 0,19,15.00,30.00,Tuesday
7,-1.9500000000000002
8,0.0
9,0.0
10,0.0
11,0.0
12,0.0
13,0.0
14,9.860084195233866
15,-3.071147543810557
16,7.132778741948073
17,-0.6441691183497369
18,10.266746246818537
2,1, 1, 1, 0,19,30.00,45.00,Tuesday
7,-2.075
8,0.0
9,0.0
10,0.0
11,0.0
12,0.0
13,0.0
14,9.817754916315593
15,-3.148384557566444
16,7.069872812794188
17,-0.7762805490892788
18,10.22448060465594
2,1, 1, 1, 0,19,45.00,60.00,Tuesday
7,-2.2
8,0.0
9,0.0
10,0.0
11,0.0
12,0.0
13,0.0
14,9.77888493722053
15,-3.136837274287836
16,6.983184605782526
17,-0.9683327249724698
18,10.183983829399607
2,1, 1, 1, 0,20, 0.00,15.00,Tuesday
7,-1.9250000000000003
8,0.0
9,0.0
10,0.0
11,0.0
12,0.0
13,0.0
14,9.756865543760944
15,-2.838339098897669
16,7.018476744848385
17,-0.7827360875349996
18,10.146418100655199
2,1, 1, 1, 0,20,15.00,30.00,Tuesday
7,-1.6500000000000002
8,0.0
9,0.0
10,0.0
11,0.0
12,0.0
13,0.0
14,9.734273090593853
15,-2.5426077682008785
16,7.049736087002884
17,-0.5846581698593809
18,10.112481050519556
2,1, 1, 1, 0,20,30.00,45.00,Tuesday
7,-1.375
8,0.0
9,0.0
10,0.0
11,0.0
12,0.0
13,0.0
14,9.713763110044717
15,-2.2479898627966188
16,7.082482890748338
17,-0.3838731665443902
18,10.081624137744747
2,1, 1, 1, 0,20,45.00,60.00,Tuesday
7,-1.1
8,0.0
9,0.0
10,0.0
11,0.0
12,0.0
13,0.0
14,9.694946990674353
15,-1.9545283969905494
16,7.117549442865709
17,-0.18046136592056429
18,10.052993962335588
2,1, 1, 1, 0,21, 0.00,15.00,Tuesday
7,-1.25
8,0.0
9,0.0
10,0.0
11,0.0
12,0.0
13,0.0
14,9.637769422937101
15,-2.2247954227226658
16,7.08520391551815
17,-0.20574726825196877
18,10.019842357087688
2,1, 1, 1, 0,21,15.00,30.00,Tuesday
7,-1.4
8,0.0
9,0.0
10,0.0
11,0.0
12,0.0
13,0.0
14,9.581354710672413
15,-2.4355520411830744
16,7.029295615420665
17,-0.2758000870843489
18,9.977570191070534
2,1, 1, 1, 0,21,30.00,45.00,Tuesday
7,-1.5499999999999999
8,0.0
9,0.0
10,0.0
11,0.0
12,0.0
13,0.0
14,9.512467220560592
15,-2.7653530961669676
16,6.992210972361647
17,-0.28382151294158577
18,9.925733594683694
2,1, 1, 1, 0,21,45.00,60.00,Tuesday
7,-1.7
8,0.0
9,0.0
10,0.0
11,0.0
12,0.0
13,0.0
14,9.438379717472433
15,-3.2004401575994487
16,6.956330003666494
17,-0.2594382879836985
18,9.866811575128248
2,1, 1, 1, 0,22, 0.00,15.00,Tuesday
7,-1.5499999999999999
8,0.0
9,0.0
10,0.0
11,0.0
12,0.0
13,0.0
14,9.427267253713844
15,-2.732651927092779
16,6.8953370885869849
17,-0.30191738365056156
18,9.813544381835419
2,1, 1, 1, 0,22,15.00,30.00,Tuesday
7,-1.4
8,0.0
9,0.0
10,0.0
11,0.0
12,0.0
13,0.0
14,9.406816581915802
15,-2.41588006969601
16,6.87346110195665
17,-0.3055589900469613
18,9.772771062170623
2,1, 1, 1, 0,22,30.00,45.00,Tuesday
7,-1.25
8,0.0
9,0.0
10,0.0
11,0.0
12,0.0
13,0.0
14,9.386108284515205
15,-2.201795243163505
16,6.871678301475185
17,-0.2407018876690472
18,9.742122415231789
2,1, 1, 1, 0,22,45.00,60.00,Tuesday
7,-1.1
8,0.0
9,0.0
10,0.0
11,0.0
12,0.0
13,0.0
14,9.369143421327232
15,-1.9299839298166746
16,6.8616980190431609
17,-0.2190506651547821
18,9.71634231178481
2,1, 1, 1, 0,23, 0.00,15.00,Tuesday
7,-1.25
8,0.0
9,0.0
10,0.0
11,0.0
12,0.0
13,0.0
14,9.310762088339004
15,-2.2332100810409809
16,6.755402016772564
17,-0.4860587283531004
18,9.684902611549888
2,1, 1, 1, 0,23,15.00,30.00,Tuesday
7,-1.4
8,0.0
9,0.0
10,0.0
11,0.0
12,0.0
13,0.0
14,9.25458493918058
15,-2.5379567897749735
16,6.640659121467706
17,-0.7706916007272184
18,9.643067097082998
2,1, 1, 1, 0,23,30.00,45.00,Tuesday
7,-1.5499999999999999
8,0.0
9,0.0
10,0.0
11,0.0
12,0.0
13,0.0
14,9.19343904124767
15,-2.8433563174700526
16,6.5240126881964219
17,-1.0567391943355347
18,9.592401926287167
2,1, 1, 1, 0,23,45.00,60.00,Tuesday
7,-1.7
8,0.0
9,0.0
10,0.0
11,0.0
12,0.0
13,0.0
14,9.12837687155613
15,-3.1490997857969007
16,6.403263808502402
17,-1.344527984206934
18,9.53608227198381
2,1, 1, 1, 0,24, 0.00,15.00,Tuesday
7,-1.7
8,0.0
9,0.0
10,0.0
11,0.0
12,0.0
13,0.0
14,9.078854075763909
15,-3.20344246985418
16,6.344446028075936
17,-1.4110143701459493
18,9.47982737938465
2,1, 1, 1, 0,24,15.00,30.00,Tuesday
7,-1.7
8,0.0
9,0.0
10,0.0
11,0.0
12,0.0
13,0.0
14,9.027395121784878
15,-3.258304468598136
16,6.289349455945626
17,-1.4744727727835426
18,9.426479396556154
2,1, 1, 1, 0,24,30.00,45.00,Tuesday
7,-1.7
8,0.0
9,0.0
10,0.0
11,0.0
12,0.0
13,0.0
14,8.9772113777892
15,-3.313058289868387
16,6.234155853279162
17,-1.5380249005671658
18,9.375799248654474
2,1, 1, 1, 0,24,45.00,60.00,Tuesday
7,-1.7
8,0.0
9,0.0
10,0.0
11,0.0
12,0.0
13,0.0
14,8.927929599407563
15,-3.3678170607183675
16,6.179895010839687
17,-1.601495608800633
18,9.326622977525819
End of Data
 Number of Records Written=        1152
