Program Version,EnergyPlus, Version 9.5.0-de239b2e5f, YMD=2023.02.17 15:25
1,5,Environment Title[],Latitude[deg],Longitude[deg],Time Zone[],Elevation[m]
2,8,Day of Simulation[],Month[],Day of Month[],DST Indicator[1=yes 0=no],Hour[],StartMinute[],EndMinute[],DayType
3,5,Cumulative Day of Simulation[],Month[],Day of Month[],DST Indicator[1=yes 0=no],DayType  ! When Daily Report Variables Requested
4,2,Cumulative Days of Simulation[],Month[]  ! When Monthly Report Variables Requested
5,1,Cumulative Days of Simulation[] ! When Run Period Report Variables Requested
6,1,Calendar Year of Simulation[] ! When Annual Report Variables Requested
7,1,Environment,Site Outdoor Air Drybulb Temperature [C] !TimeStep
8,1,ZONE ONE,Zone Windows Total Transmitted Solar Radiation Rate [W] !TimeStep
9,1,ZN001:WALL001,Surface Outside Face Sunlit Fraction [] !TimeStep
10,1,ZN001:WALL001,Surface Outside Face Incident Solar Radiation Rate per Area [W/m2] !TimeStep
11,1,ZN001:WALL001:WIN001,Surface Outside Face Sunlit Fraction [] !TimeStep
12,1,ZN001:WALL001:WIN001,Surface Outside Face Incident Solar Radiation Rate per Area [W/m2] !TimeStep
13,1,ZN001:WALL001:WIN001,Surface Window Transmitted Solar Radiation Rate [W] !TimeStep
14,1,ZN001:WALL001,Surface Inside Face Temperature [C] !TimeStep
15,1,ZN001:WALL001,Surface Outside Face Temperature [C] !TimeStep
16,1,ZN001:WALL001:WIN001,Surface Inside Face Temperature [C] !TimeStep
17,1,ZN001:WALL001:WIN001,Surface Outside Face Temperature [C] !TimeStep
18,1,ZONE ONE,Zone Mean Air Temperature [C] !TimeStep
End of Data Dictionary
1,RUN PERIOD 1,  41.98, -87.92,  -6.00, 201.00
2,1, 1, 1, 0, 1, 0.00,15.00,Tuesday
7,-4.324999999999999
8,0.0
9,0.0
10,0.0
11,0.0
12,0.0
13,0.0
14,0.7632692333993788
15,-5.9902670563859499
16,-1.4543733786943563
17,-4.655062608986839
18,1.0795722118135292
2,1, 1, 1, 0, 1,15.00,30.00,Tuesday
7,-6.949999999999999
8,0.0
9,0.0
10,0.0
11,0.0
12,0.0
13,0.0
14,0.5841296979651725
15,-8.45825905114144
16,-2.32748302959601
17,-6.553788824673575
18,0.9883386704718752
2,1, 1, 1, 0, 1,30.00,45.00,Tuesday
7,-9.575
8,0.0
9,0.0
10,0.0
11,0.0
12,0.0
13,0.0
14,0.3801854881150601
15,-10.935051548754501
16,-3.2016849675936784
17,-8.458651164405297
18,0.8596901849039957
2,1, 1, 1, 0, 1,45.00,60.00,Tuesday
7,-12.2
8,0.0
9,0.0
10,0.0
11,0.0
12,0.0
13,0.0
14,0.1599039207318243
15,-13.418293131921426
16,-4.089265106968298
17,-10.372905802510104
18,0.7042221179538093
2,1, 1, 1, 0, 2, 0.00,15.00,Tuesday
7,-12.075
8,0.0
9,0.0
10,0.0
11,0.0
12,0.0
13,0.0
14,0.10050607463078912
15,-13.220248549000763
16,-4.106176651227656
17,-10.258177829830459
18,0.5649459080395136
2,1, 1, 1, 0, 2,15.00,30.00,Tuesday
7,-11.95
8,0.0
9,0.0
10,0.0
11,0.0
12,0.0
13,0.0
14,0.025487707679449899
15,-13.043032816574684
16,-4.105619184105478
17,-10.135331933654584
18,0.46159774088815538
2,1, 1, 1, 0, 2,30.00,45.00,Tuesday
7,-11.825
8,0.0
9,0.0
10,0.0
11,0.0
12,0.0
13,0.0
14,-0.030363539855144177
15,-12.864483975469517
16,-4.099370318242336
17,-10.010826815604333
18,0.3888658274905395
2,1, 1, 1, 0, 2,45.00,60.00,Tuesday
7,-11.7
8,0.0
9,0.0
10,0.0
11,0.0
12,0.0
13,0.0
14,-0.07352470425333309
15,-12.685997571322071
16,-4.080512783770473
17,-9.881542013933313
18,0.33468603786490189
2,1, 1, 1, 0, 3, 0.00,15.00,Tuesday
7,-11.549999999999999
8,0.0
9,0.0
10,0.0
11,0.0
12,0.0
13,0.0
14,-0.11438538203850253
15,-12.5620884609118
16,-4.053367118352071
17,-9.74904610110275
18,0.28902500911968068
2,1, 1, 1, 0, 3,15.00,30.00,Tuesday
7,-11.399999999999999
8,0.0
9,0.0
10,0.0
11,0.0
12,0.0
13,0.0
14,-0.1513705599698229
15,-12.43964165216095
16,-4.023950094182396
17,-9.616414394938375
18,0.2466848002480697
2,1, 1, 1, 0, 3,30.00,45.00,Tuesday
7,-11.25
8,0.0
9,0.0
10,0.0
11,0.0
12,0.0
13,0.0
14,-0.1870914463749563
15,-12.318833801496295
16,-3.9927062910372799
17,-9.483646265433777
18,0.20591387879479046
2,1, 1, 1, 0, 3,45.00,60.00,Tuesday
7,-11.1
8,0.0
9,0.0
10,0.0
11,0.0
12,0.0
13,0.0
14,-0.2220957340968191
15,-12.199724824427954
16,-3.9608013798752497
17,-9.351207103469278
18,0.16630934247199179
2,1, 1, 1, 0, 4, 0.00,15.00,Tuesday
7,-11.1
8,0.0
9,0.0
10,0.0
11,0.0
12,0.0
13,0.0
14,-0.2609929759714543
15,-12.168302549785539
16,-4.008901510668807
17,-9.380185453545778
18,0.12651324652044228
2,1, 1, 1, 0, 4,15.00,30.00,Tuesday
7,-11.1
8,0.0
9,0.0
10,0.0
11,0.0
12,0.0
13,0.0
14,-0.29954508190275389
15,-12.138109895839266
16,-4.049611810536362
17,-9.415532896524951
18,0.08601195905762783
2,1, 1, 1, 0, 4,30.00,45.00,Tuesday
7,-11.1
8,0.0
9,0.0
10,0.0
11,0.0
12,0.0
13,0.0
14,-0.33840577788568979
15,-12.109594521903695
16,-4.089079183652416
17,-9.451062395011661
18,0.044972487634973457
2,1, 1, 1, 0, 4,45.00,60.00,Tuesday
7,-11.1
8,0.0
9,0.0
10,0.0
11,0.0
12,0.0
13,0.0
14,-0.37745468029634596
15,-12.08261657871973
16,-4.128182083398428
17,-9.485864949008715
18,0.00370292302340125
2,1, 1, 1, 0, 5, 0.00,15.00,Tuesday
7,-10.975
8,0.0
9,0.0
10,0.0
11,0.0
12,0.0
13,0.0
14,-0.4105010735279577
15,-11.960354626414534
16,-4.11166413302891
17,-9.409977523811222
18,-0.03632357505841591
2,1, 1, 1, 0, 5,15.00,30.00,Tuesday
7,-10.85
8,0.0
9,0.0
10,0.0
11,0.0
12,0.0
13,0.0
14,-0.4432832233021109
15,-11.83819039045638
16,-4.0979323376843699
17,-9.326920903117412
18,-0.07450528918542977
2,1, 1, 1, 0, 5,30.00,45.00,Tuesday
7,-10.725
8,0.0
9,0.0
10,0.0
11,0.0
12,0.0
13,0.0
14,-0.474962868585628
15,-11.716001538422738
16,-4.084185957510101
17,-9.242746337647475
18,-0.11109302565403197
2,1, 1, 1, 0, 5,45.00,60.00,Tuesday
7,-10.6
8,0.0
9,0.0
10,0.0
11,0.0
12,0.0
13,0.0
14,-0.5057096682708309
15,-11.593821332012095
16,-4.0697227720968389
17,-9.158160958164445
18,-0.14653551602565996
2,1, 1, 1, 0, 6, 0.00,15.00,Tuesday
7,-10.6
8,0.0
9,0.0
10,0.0
11,0.0
12,0.0
13,0.0
14,-0.544022884451241
15,-11.594624257514213
16,-4.0949345541524739
17,-9.163236862907866
18,-0.18255021561848243
2,1, 1, 1, 0, 6,15.00,30.00,Tuesday
7,-10.6
8,0.0
9,0.0
10,0.0
11,0.0
12,0.0
13,0.0
14,-0.5817347223393906
15,-11.595326856473076
16,-4.122136631042167
17,-9.171792855800959
18,-0.22002268412946025
2,1, 1, 1, 0, 6,30.00,45.00,Tuesday
7,-10.6
8,0.0
9,0.0
10,0.0
11,0.0
12,0.0
13,0.0
14,-0.6200171284733209
15,-11.596075471125492
16,-4.149386084343007
17,-9.181133829539249
18,-0.2587483323950805
2,1, 1, 1, 0, 6,45.00,60.00,Tuesday
7,-10.6
8,0.0
9,0.0
10,0.0
11,0.0
12,0.0
13,0.0
14,-0.6586934404163948
15,-11.596824753710619
16,-4.1769024283277649
17,-9.190864857850443
18,-0.29818753151776147
2,1, 1, 1, 0, 7, 0.00,15.00,Tuesday
7,-10.6
8,0.0
9,0.0
10,0.0
11,0.0
12,0.0
13,0.0
14,-0.6952892510109549
15,-11.570921318101659
16,-4.218219883324764
17,-9.21909987731783
18,-0.33775567527922809
2,1, 1, 1, 0, 7,15.00,30.00,Tuesday
7,-10.6
8,0.0
9,0.0
10,0.0
11,0.0
12,0.0
13,0.0
14,-0.7321011486560591
15,-11.54636869503623
16,-4.254177304745099
17,-9.248173577137493
18,-0.37700211351010007
2,1, 1, 1, 0, 7,30.00,45.00,Tuesday
7,-10.6
8,0.0
9,0.0
10,0.0
11,0.0
12,0.0
13,0.0
14,-0.7687239627876833
15,-11.523057175199519
16,-4.289356546680608
17,-9.27691771913328
18,-0.4158344572576011
2,1, 1, 1, 0, 7,45.00,60.00,Tuesday
7,-10.6
8,0.0
9,0.0
10,0.0
11,0.0
12,0.0
13,0.0
14,-0.8050923601844883
15,-11.50091364157437
16,-4.323963487738524
17,-9.30487472900819
18,-0.45431582097944159
2,1, 1, 1, 0, 8, 0.00,15.00,Tuesday
7,-10.45
8,0.0
9,0.0
10,0.0
11,0.0
12,0.0
13,0.0
14,-0.8422056276872966
15,-11.453589004572735
16,-4.320901553422345
17,-9.258823822498926
18,-0.49260694053162576
2,1, 1, 1, 0, 8,15.00,30.00,Tuesday
7,-10.3
8,77.83635125570177
9,1.0
10,22.819555959623899
11,1.0
12,22.819555959623899
13,77.83635125570177
14,-0.7714633218744234
15,-9.780751484547233
16,-3.903849102608774
17,-8.843842817050473
18,-0.5155797668090244
2,1, 1, 1, 0, 8,30.00,45.00,Tuesday
7,-10.15
8,382.80225054662847
9,1.0
10,109.75755355442667
11,1.0
12,109.75755355442667
13,382.80225054662847
14,-0.4065781096805103
15,-3.4233767296005688
16,-2.2520809412728228
17,-7.385299993176318
18,-0.4820499809027837
2,1, 1, 1, 0, 8,45.00,60.00,Tuesday
7,-10.0
8,698.1846215562486
9,1.0
10,195.8764694434918
11,1.0
12,195.8764694434918
13,698.1846215562486
14,0.03700698014748139
15,3.0649815911287598
16,-0.48468348861865709
17,-5.905830590650794
18,-0.3864293459687936
2,1, 1, 1, 0, 9, 0.00,15.00,Tuesday
7,-9.725
8,1014.638905935737
9,1.0
10,278.97248314719988
11,1.0
12,278.97248314719988
13,1014.638905935737
14,0.3831794000025562
15,8.252763044611032
16,1.1811197520478345
17,-4.607619937598429
18,-0.24599711044021356
2,1, 1, 1, 0, 9,15.00,30.00,Tuesday
7,-9.45
8,1350.5681277582674
9,1.0
10,364.91995730569456
11,1.0
12,364.91995730569456
13,1350.5681277582674
14,0.7523398071934201
15,13.333935376877648
16,2.7850445136436976
17,-3.3348295164959156
18,-0.06740401931909494
2,1, 1, 1, 0, 9,30.00,45.00,Tuesday
7,-9.175
8,1576.0729545191558
9,1.0
10,420.35879993239237
11,1.0
12,420.35879993239237
13,1576.0729545191558
14,1.005675761488632
15,16.0943308315959
16,3.81484484641544
17,-2.5504340894742087
18,0.1309208087379104
2,1, 1, 1, 0, 9,45.00,60.00,Tuesday
7,-8.9
8,1811.3807481081638
9,1.0
10,478.00138373643099
11,1.0
12,478.00138373643099
13,1811.3807481081638
14,1.3033566200077039
15,19.090283575106765
16,4.858168738151164
17,-1.7480500442978269
18,0.34041593829229135
2,1, 1, 1, 0,10, 0.00,15.00,Tuesday
7,-8.350000000000002
8,2052.886747243369
9,1.0
10,536.9185644770597
11,1.0
12,536.9185644770597
13,2052.886747243369
14,1.540963291761678
15,20.21203220539335
16,5.8963310788659559
17,-0.9894570889006218
18,0.5637447540018874
2,1, 1, 1, 0,10,15.00,30.00,Tuesday
7,-7.800000000000001
8,2303.7230513037227
9,1.0
10,598.0969199229219
11,1.0
12,598.0969199229219
13,2303.7230513037227
14,1.8023169619959237
15,21.468094678292549
16,6.950823987838703
17,-0.23380984393293148
18,0.8041092144360785
2,1, 1, 1, 0,10,30.00,45.00,Tuesday
7,-7.25
8,2471.2624626274
9,1.0
10,637.6133352894237
11,1.0
12,637.6133352894237
13,2471.2624626274
14,1.9967718436333005
15,21.530665688436625
16,7.668566396236429
17,0.254241961377204
18,1.047114565756872
2,1, 1, 1, 0,10,45.00,60.00,Tuesday
7,-6.7
8,2636.784816009174
9,1.0
10,676.6412284283772
11,1.0
12,676.6412284283772
13,2636.784816009174
14,2.2082146999320169
15,21.693119694989
16,8.365938511501384
17,0.7376241913470949
18,1.282849962951363
2,1, 1, 1, 0,11, 0.00,15.00,Tuesday
7,-6.275
8,2799.5545130672337
9,1.0
10,715.0112779846514
11,1.0
12,715.0112779846514
13,2799.5545130672337
14,2.497242942582672
15,23.790375555019897
16,9.164657038152996
17,1.5075412128396693
18,1.5155950222413255
2,1, 1, 1, 0,11,15.00,30.00,Tuesday
7,-5.85
8,2958.555005634146
9,1.0
10,752.5077794605232
11,1.0
12,752.5077794605232
13,2958.555005634146
14,2.772427194176106
15,25.72531060907554
16,9.945753574467745
17,2.2581617303085865
18,1.7505427843689566
2,1, 1, 1, 0,11,30.00,45.00,Tuesday
7,-5.425
8,2916.1314901115258
9,1.0
10,742.5988714321785
11,1.0
12,742.5988714321785
13,2916.1314901115258
14,2.9264023261303349
15,25.577204406543495
16,10.055668879733162
17,2.5042705255748958
18,1.9719150133303379
2,1, 1, 1, 0,11,45.00,60.00,Tuesday
7,-5.0
8,2852.9337678755075
9,1.0
10,727.8169025450712
11,1.0
12,727.8169025450712
13,2852.9337678755075
14,3.0769061051163368
15,25.3476588378475
16,10.08030420786804
17,2.708089200961922
18,2.1686067529052996
2,1, 1, 1, 0,12, 0.00,15.00,Tuesday
7,-4.575
8,2742.392684181217
9,1.0
10,700.3759009170325
11,1.0
12,700.3759009170325
13,2742.392684181217
14,3.178168411326261
15,24.604797231416389
16,9.935469328926559
17,2.819778088993303
18,2.3353225729892594
2,1, 1, 1, 0,12,15.00,30.00,Tuesday
7,-4.15
8,2658.6559047656876
9,1.0
10,681.6705029034473
11,1.0
12,681.6705029034473
13,2658.6559047656876
14,3.2982353142080389
15,24.27403830524324
16,9.903300088523338
17,3.0221296940202366
18,2.4792928486808014
2,1, 1, 1, 0,12,30.00,45.00,Tuesday
7,-3.7249999999999998
8,2331.5894843835787
9,1.0
10,602.01865277251
11,1.0
12,602.01865277251
13,2331.5894843835787
14,3.2124784447434955
15,21.24567916732184
16,9.002552916949299
17,2.599636655350025
18,2.582117774876563
2,1, 1, 1, 0,12,45.00,60.00,Tuesday
7,-3.3
8,1902.6474117955254
9,1.0
10,493.55004396206007
11,1.0
12,493.55004396206007
13,1902.6474117955254
14,3.035166553280946
15,17.066913361271813
16,7.609583589758245
17,1.8446160477571426
18,2.62485620186439
2,1, 1, 1, 0,13, 0.00,15.00,Tuesday
7,-3.0249999999999996
8,1566.472447216765
9,1.0
10,412.335026418112
11,1.0
12,412.335026418112
13,1566.472447216765
14,2.9106519437109847
15,14.221844895933196
16,6.551488551119405
17,1.3276280113311714
18,2.6207778555098528
2,1, 1, 1, 0,13,15.00,30.00,Tuesday
7,-2.75
8,1143.4706186883682
9,1.0
10,305.94037763660148
11,1.0
12,305.94037763660148
13,1143.4706186883682
14,2.6538560298363889
15,10.048340859645828
16,5.056748325428089
17,0.49530492517033056
18,2.5774336394935886
2,1, 1, 1, 0,13,30.00,45.00,Tuesday
7,-2.475
8,1041.9696487744569
9,1.0
10,281.0763483922329
11,1.0
12,281.0763483922329
13,1041.9696487744569
14,2.6417676177310769
15,9.534722834467918
16,4.77316717430881
17,0.5368476457820748
18,2.5245337031305588
2,1, 1, 1, 0,13,45.00,60.00,Tuesday
7,-2.2
8,942.5912266126629
9,1.0
10,256.7721209415886
11,1.0
12,256.7721209415886
13,942.5912266126629
14,2.6126833150652719
15,8.927058652438295
16,4.5341395998666489
17,0.5961072400465355
18,2.4804391342541005
2,1, 1, 1, 0,14, 0.00,15.00,Tuesday
7,-1.9250000000000003
8,768.7481973099971
9,1.0
10,210.73276284570657
11,1.0
12,210.73276284570657
13,768.7481973099971
14,2.5108711238810796
15,7.378489453235685
16,3.9204727051076135
17,0.3747095308445978
18,2.4415995090705855
2,1, 1, 1, 0,14,15.00,30.00,Tuesday
7,-1.6500000000000002
8,680.8641971716577
9,1.0
10,189.38488290342594
11,1.0
12,189.38488290342594
13,680.8641971716577
14,2.4903039209610675
15,6.971285564215534
16,3.685894278544879
17,0.42025345908655256
18,2.408140519974141
2,1, 1, 1, 0,14,30.00,45.00,Tuesday
7,-1.375
8,649.6853484819967
9,1.0
10,179.3940297802914
11,1.0
12,179.3940297802914
13,649.6853484819967
14,2.493628375496139
15,7.090714563620889
16,3.652701166120721
17,0.6031069749983544
18,2.3827114456453488
2,1, 1, 1, 0,14,45.00,60.00,Tuesday
7,-1.1
8,617.8627699587247
9,1.0
10,169.43349014176136
11,1.0
12,169.43349014176136
13,617.8627699587247
14,2.493647815405756
15,7.18760988429126
16,3.6164446698186909
17,0.7821373905927658
18,2.3652510027970417
2,1, 1, 1, 0,15, 0.00,15.00,Tuesday
7,-1.1
8,649.6420380112065
9,1.0
10,178.15692317953907
11,1.0
12,178.15692317953907
13,649.6420380112065
14,2.5438206630961099
15,8.001437670717515
16,3.785479471553458
17,0.9466695805633663
18,2.357860877973449
2,1, 1, 1, 0,15,15.00,30.00,Tuesday
7,-1.1
8,609.8338124401078
9,1.0
10,166.40516310952945
11,1.0
12,166.40516310952945
13,609.8338124401078
14,2.5090857943401909
15,7.63817358668583
16,3.613836336313284
17,0.8498924008772519
18,2.3540648376230024
2,1, 1, 1, 0,15,30.00,45.00,Tuesday
7,-1.1
8,513.174322336492
9,1.0
10,140.8967369711617
11,1.0
12,140.8967369711617
13,513.174322336492
14,2.4180955243762987
15,6.4303096144282299
16,3.171816687347416
17,0.5379843950852319
18,2.343907711465315
2,1, 1, 1, 0,15,45.00,60.00,Tuesday
7,-1.1
8,421.4546892911661
9,1.0
10,116.57355796743004
11,1.0
12,116.57355796743004
13,421.4546892911661
14,2.327549456627858
15,5.218345063750087
16,2.721489504917656
17,0.21723381957201583
18,2.3199096116303568
2,1, 1, 1, 0,16, 0.00,15.00,Tuesday
7,-1.1
8,333.8477508930492
9,1.0
10,93.14939272689483
11,1.0
12,93.14939272689483
13,333.8477508930492
14,2.2334147153265158
15,4.155778015983536
16,2.294760754185802
17,-0.04218309108631502
18,2.282438228868164
2,1, 1, 1, 0,16,15.00,30.00,Tuesday
7,-1.1
8,206.8104610791499
9,1.0
10,57.94047897402063
11,1.0
12,57.94047897402063
13,206.8104610791499
14,2.0681640138178389
15,2.0265237518354617
16,1.6229323640325789
17,-0.5127844141678111
18,2.2278464780799216
2,1, 1, 1, 0,16,30.00,45.00,Tuesday
7,-1.1
8,160.05627499213206
9,1.0
10,45.38251793443488
11,1.0
12,45.38251793443488
13,160.05627499213206
14,2.014058609752178
15,1.4095054278822564
16,1.3792514934175416
17,-0.6520226356417993
18,2.162902658105196
2,1, 1, 1, 0,16,45.00,60.00,Tuesday
7,-1.1
8,111.56756030757345
9,1.0
10,32.02625108222755
11,1.0
12,32.02625108222755
13,111.56756030757345
14,1.924430655223496
15,0.5357483845942773
16,1.1290351144386364
17,-0.80951217153779
18,2.0940810262914595
2,1, 1, 1, 0,17, 0.00,15.00,Tuesday
7,-1.1
8,61.144596875686087
9,1.0
10,17.762198626050539
11,1.0
12,17.762198626050539
13,61.144596875686087
14,1.8053455988752632
15,-0.7294607681152396
16,0.800875226955327
17,-1.0888461048992327
18,2.01895897625442
2,1, 1, 1, 0,17,15.00,30.00,Tuesday
7,-1.1
8,0.0
9,0.0
10,0.0
11,0.0
12,0.0
13,0.0
14,1.6371805926595394
15,-2.5727216635388765
16,0.38337298297938107
17,-1.4731252246057239
18,1.926264552996383
2,1, 1, 1, 0,17,30.00,45.00,Tuesday
7,-1.1
8,0.0
9,0.0
10,0.0
11,0.0
12,0.0
13,0.0
14,1.5925022361571229
15,-2.714321364938929
16,0.30635498002055785
17,-1.5235365102748802
18,1.832606296118315
2,1, 1, 1, 0,17,45.00,60.00,Tuesday
7,-1.1
8,0.0
9,0.0
10,0.0
11,0.0
12,0.0
13,0.0
14,1.53240466701691
15,-2.9163936638644074
16,0.25298896546951257
17,-1.5719102334916216
18,1.7529998027521959
2,1, 1, 1, 0,18, 0.00,15.00,Tuesday
7,-1.25
8,0.0
9,0.0
10,0.0
11,0.0
12,0.0
13,0.0
14,1.4836022887079255
15,-3.06282612413978
16,0.1618931052487369
17,-1.7005703127189236
18,1.6902390125535494
2,1, 1, 1, 0,18,15.00,30.00,Tuesday
7,-1.4
8,0.0
9,0.0
10,0.0
11,0.0
12,0.0
13,0.0
14,1.4396517086743759
15,-3.215209281974563
16,0.08462533455576704
17,-1.8187592289147006
18,1.6404720378970857
2,1, 1, 1, 0,18,30.00,45.00,Tuesday
7,-1.5499999999999999
8,0.0
9,0.0
10,0.0
11,0.0
12,0.0
13,0.0
14,1.400100700352727
15,-3.366931187433034
16,0.01111120967846091
17,-1.9356146800304828
18,1.5987566397403932
2,1, 1, 1, 0,18,45.00,60.00,Tuesday
7,-1.7
8,0.0
9,0.0
10,0.0
11,0.0
12,0.0
13,0.0
14,1.3639552786055318
15,-3.518827168977236
16,-0.05940781464801148
17,-2.0509775575138748
18,1.561627094355123
2,1, 1, 1, 0,19, 0.00,15.00,Tuesday
7,-1.825
8,0.0
9,0.0
10,0.0
11,0.0
12,0.0
13,0.0
14,1.3550270414910597
15,-3.3546671086201425
16,-0.10016184154085295
17,-2.103784532164923
18,1.530738098489145
2,1, 1, 1, 0,19,15.00,30.00,Tuesday
7,-1.9500000000000002
8,0.0
9,0.0
10,0.0
11,0.0
12,0.0
13,0.0
14,1.3458312851095844
15,-3.273784889902429
16,-0.14214692438793009
17,-2.1718537221829594
18,1.507501976968803
2,1, 1, 1, 0,19,30.00,45.00,Tuesday
7,-2.075
8,0.0
9,0.0
10,0.0
11,0.0
12,0.0
13,0.0
14,1.3312759399090384
15,-3.3437758648074205
16,-0.1885933102769286
17,-2.25765000969227
18,1.4901947208233697
2,1, 1, 1, 0,19,45.00,60.00,Tuesday
7,-2.2
8,0.0
9,0.0
10,0.0
11,0.0
12,0.0
13,0.0
14,1.319978742329389
15,-3.309062202267135
16,-0.23070478925012595
17,-2.3373993100410077
18,1.4758032494917839
2,1, 1, 1, 0,20, 0.00,15.00,Tuesday
7,-1.9250000000000003
8,0.0
9,0.0
10,0.0
11,0.0
12,0.0
13,0.0
14,1.3251838143709669
15,-3.004740129732647
16,-0.13556272663976189
17,-2.148911717198075
18,1.4648208066527182
2,1, 1, 1, 0,20,15.00,30.00,Tuesday
7,-1.6500000000000002
8,0.0
9,0.0
10,0.0
11,0.0
12,0.0
13,0.0
14,1.3315741383232005
15,-2.703700221177352
16,-0.05140464043876136
17,-1.931789001927541
18,1.4575938099706463
2,1, 1, 1, 0,20,30.00,45.00,Tuesday
7,-1.375
8,0.0
9,0.0
10,0.0
11,0.0
12,0.0
13,0.0
14,1.33991172921691
15,-2.4041132968023515
16,0.045324009988860328
17,-1.7288481686316573
18,1.4537274326625607
2,1, 1, 1, 0,20,45.00,60.00,Tuesday
7,-1.1
8,0.0
9,0.0
10,0.0
11,0.0
12,0.0
13,0.0
14,1.3494582362420904
15,-2.105921488191107
16,0.1336536486279556
17,-1.504398769300792
18,1.4523470770574898
2,1, 1, 1, 0,21, 0.00,15.00,Tuesday
7,-1.25
8,0.0
9,0.0
10,0.0
11,0.0
12,0.0
13,0.0
14,1.312739081994731
15,-2.400071915325073
16,0.0636829197520683
17,-1.6274408132083523
18,1.4466465636914657
2,1, 1, 1, 0,21,15.00,30.00,Tuesday
7,-1.4
8,0.0
9,0.0
10,0.0
11,0.0
12,0.0
13,0.0
14,1.2759732153162449
15,-2.6234381865196676
16,-0.0014656054616466463
17,-1.7464979053977459
18,1.431579523865022
2,1, 1, 1, 0,21,30.00,45.00,Tuesday
7,-1.5499999999999999
8,0.0
9,0.0
10,0.0
11,0.0
12,0.0
13,0.0
14,1.2250204311754445
15,-2.9846882056586478
16,-0.07691604681474473
17,-1.882256353601747
18,1.4055729191243254
2,1, 1, 1, 0,21,45.00,60.00,Tuesday
7,-1.7
8,0.0
9,0.0
10,0.0
11,0.0
12,0.0
13,0.0
14,1.1688911396570945
15,-3.4557946438934099
16,-0.16370939368630389
17,-2.0377778340504735
18,1.3703248623717535
2,1, 1, 1, 0,22, 0.00,15.00,Tuesday
7,-1.5499999999999999
8,0.0
9,0.0
10,0.0
11,0.0
12,0.0
13,0.0
14,1.1880893090304546
15,-2.9454064339300847
16,-0.11751574471463755
17,-1.9080123257875812
18,1.3398822053619262
2,1, 1, 1, 0,22,15.00,30.00,Tuesday
7,-1.4
8,0.0
9,0.0
10,0.0
11,0.0
12,0.0
13,0.0
14,1.199727703629232
15,-2.599749509786312
16,-0.059573617164005557
17,-1.773637293023853
18,1.3223353737296758
2,1, 1, 1, 0,22,30.00,45.00,Tuesday
7,-1.25
8,0.0
9,0.0
10,0.0
11,0.0
12,0.0
13,0.0
14,1.2086429771218923
15,-2.372736972833207
16,-0.007436224233174471
17,-1.6530798646605263
18,1.3160681372029053
2,1, 1, 1, 0,22,45.00,60.00,Tuesday
7,-1.1
8,0.0
9,0.0
10,0.0
11,0.0
12,0.0
13,0.0
14,1.221337691196365
15,-2.0776915867152145
16,0.05705408577148319
17,-1.5135421257687086
18,1.3162353885411629
2,1, 1, 1, 0,23, 0.00,15.00,Tuesday
7,-1.25
8,0.0
9,0.0
10,0.0
11,0.0
12,0.0
13,0.0
14,1.1842989703383924
15,-2.381626160325873
16,-0.06833104834026926
17,-1.7585790681164895
18,1.3123847128243669
2,1, 1, 1, 0,23,15.00,30.00,Tuesday
7,-1.4
8,0.0
9,0.0
10,0.0
11,0.0
12,0.0
13,0.0
14,1.148485018094511
15,-2.686190081831698
16,-0.19886385787560813
17,-2.0235100662530387
18,1.2985025509466879
2,1, 1, 1, 0,23,30.00,45.00,Tuesday
7,-1.5499999999999999
8,0.0
9,0.0
10,0.0
11,0.0
12,0.0
13,0.0
14,1.1090418439022727
15,-2.9913160757077477
16,-0.33011419154763646
17,-2.2891953358511047
18,1.274808696870927
2,1, 1, 1, 0,23,45.00,60.00,Tuesday
7,-1.7
8,0.0
9,0.0
10,0.0
11,0.0
12,0.0
13,0.0
14,1.065812981860797
15,-3.2968074650911425
16,-0.46413826223056278
17,-2.555835312311558
18,1.243917742759767
2,1, 1, 1, 0,24, 0.00,15.00,Tuesday
7,-1.7
8,0.0
9,0.0
10,0.0
11,0.0
12,0.0
13,0.0
14,1.0413499139390954
15,-3.3504577853752495
16,-0.5054110564958023
17,-2.614371283273556
18,1.2117433808157024
2,1, 1, 1, 0,24,15.00,30.00,Tuesday
7,-1.7
8,0.0
9,0.0
10,0.0
11,0.0
12,0.0
13,0.0
14,1.0137348708122843
15,-3.404957064243942
16,-0.5444529637334767
17,-2.6702143383667478
18,1.1816872307585678
2,1, 1, 1, 0,24,30.00,45.00,Tuesday
7,-1.7
8,0.0
9,0.0
10,0.0
11,0.0
12,0.0
13,0.0
14,0.9868554360612413
15,-3.4593091605629135
16,-0.5840763278631584
17,-2.7261278507758108
18,1.154057844941521
2,1, 1, 1, 0,24,45.00,60.00,Tuesday
7,-1.7
8,0.0
9,0.0
10,0.0
11,0.0
12,0.0
13,0.0
14,0.9606409677992261
15,-3.513658955166862
16,-0.6230731265558234
17,-2.781706824144692
18,1.1279969723654043
End of Data
 Number of Records Written=        1152
